# vtk DataFile Version 3.0
Result Field
ASCII
DATASET STRUCTURED_GRID
DIMENSIONS 65 65 1
POINTS 4225 double
0.000000 0.000000 0.000000
0.000000 0.015625 0.000000
0.000000 0.031250 0.000000
0.000000 0.046875 0.000000
0.000000 0.062500 0.000000
0.000000 0.078125 0.000000
0.000000 0.093750 0.000000
0.000000 0.109375 0.000000
0.000000 0.125000 0.000000
0.000000 0.140625 0.000000
0.000000 0.156250 0.000000
0.000000 0.171875 0.000000
0.000000 0.187500 0.000000
0.000000 0.203125 0.000000
0.000000 0.218750 0.000000
0.000000 0.234375 0.000000
0.000000 0.250000 0.000000
0.000000 0.265625 0.000000
0.000000 0.281250 0.000000
0.000000 0.296875 0.000000
0.000000 0.312500 0.000000
0.000000 0.328125 0.000000
0.000000 0.343750 0.000000
0.000000 0.359375 0.000000
0.000000 0.375000 0.000000
0.000000 0.390625 0.000000
0.000000 0.406250 0.000000
0.000000 0.421875 0.000000
0.000000 0.437500 0.000000
0.000000 0.453125 0.000000
0.000000 0.468750 0.000000
0.000000 0.484375 0.000000
0.000000 0.500000 0.000000
0.000000 0.515625 0.000000
0.000000 0.531250 0.000000
0.000000 0.546875 0.000000
0.000000 0.562500 0.000000
0.000000 0.578125 0.000000
0.000000 0.593750 0.000000
0.000000 0.609375 0.000000
0.000000 0.625000 0.000000
0.000000 0.640625 0.000000
0.000000 0.656250 0.000000
0.000000 0.671875 0.000000
0.000000 0.687500 0.000000
0.000000 0.703125 0.000000
0.000000 0.718750 0.000000
0.000000 0.734375 0.000000
0.000000 0.750000 0.000000
0.000000 0.765625 0.000000
0.000000 0.781250 0.000000
0.000000 0.796875 0.000000
0.000000 0.812500 0.000000
0.000000 0.828125 0.000000
0.000000 0.843750 0.000000
0.000000 0.859375 0.000000
0.000000 0.875000 0.000000
0.000000 0.890625 0.000000
0.000000 0.906250 0.000000
0.000000 0.921875 0.000000
0.000000 0.937500 0.000000
0.000000 0.953125 0.000000
0.000000 0.968750 0.000000
0.000000 0.984375 0.000000
0.000000 1.000000 0.000000
0.015625 0.000000 0.000000
0.015625 0.015625 0.000000
0.015625 0.031250 0.000000
0.015625 0.046875 0.000000
0.015625 0.062500 0.000000
0.015625 0.078125 0.000000
0.015625 0.093750 0.000000
0.015625 0.109375 0.000000
0.015625 0.125000 0.000000
0.015625 0.140625 0.000000
0.015625 0.156250 0.000000
0.015625 0.171875 0.000000
0.015625 0.187500 0.000000
0.015625 0.203125 0.000000
0.015625 0.218750 0.000000
0.015625 0.234375 0.000000
0.015625 0.250000 0.000000
0.015625 0.265625 0.000000
0.015625 0.281250 0.000000
0.015625 0.296875 0.000000
0.015625 0.312500 0.000000
0.015625 0.328125 0.000000
0.015625 0.343750 0.000000
0.015625 0.359375 0.000000
0.015625 0.375000 0.000000
0.015625 0.390625 0.000000
0.015625 0.406250 0.000000
0.015625 0.421875 0.000000
0.015625 0.437500 0.000000
0.015625 0.453125 0.000000
0.015625 0.468750 0.000000
0.015625 0.484375 0.000000
0.015625 0.500000 0.000000
0.015625 0.515625 0.000000
0.015625 0.531250 0.000000
0.015625 0.546875 0.000000
0.015625 0.562500 0.000000
0.015625 0.578125 0.000000
0.015625 0.593750 0.000000
0.015625 0.609375 0.000000
0.015625 0.625000 0.000000
0.015625 0.640625 0.000000
0.015625 0.656250 0.000000
0.015625 0.671875 0.000000
0.015625 0.687500 0.000000
0.015625 0.703125 0.000000
0.015625 0.718750 0.000000
0.015625 0.734375 0.000000
0.015625 0.750000 0.000000
0.015625 0.765625 0.000000
0.015625 0.781250 0.000000
0.015625 0.796875 0.000000
0.015625 0.812500 0.000000
0.015625 0.828125 0.000000
0.015625 0.843750 0.000000
0.015625 0.859375 0.000000
0.015625 0.875000 0.000000
0.015625 0.890625 0.000000
0.015625 0.906250 0.000000
0.015625 0.921875 0.000000
0.015625 0.937500 0.000000
0.015625 0.953125 0.000000
0.015625 0.968750 0.000000
0.015625 0.984375 0.000000
0.015625 1.000000 0.000000
0.031250 0.000000 0.000000
0.031250 0.015625 0.000000
0.031250 0.031250 0.000000
0.031250 0.046875 0.000000
0.031250 0.062500 0.000000
0.031250 0.078125 0.000000
0.031250 0.093750 0.000000
0.031250 0.109375 0.000000
0.031250 0.125000 0.000000
0.031250 0.140625 0.000000
0.031250 0.156250 0.000000
0.031250 0.171875 0.000000
0.031250 0.187500 0.000000
0.031250 0.203125 0.000000
0.031250 0.218750 0.000000
0.031250 0.234375 0.000000
0.031250 0.250000 0.000000
0.031250 0.265625 0.000000
0.031250 0.281250 0.000000
0.031250 0.296875 0.000000
0.031250 0.312500 0.000000
0.031250 0.328125 0.000000
0.031250 0.343750 0.000000
0.031250 0.359375 0.000000
0.031250 0.375000 0.000000
0.031250 0.390625 0.000000
0.031250 0.406250 0.000000
0.031250 0.421875 0.000000
0.031250 0.437500 0.000000
0.031250 0.453125 0.000000
0.031250 0.468750 0.000000
0.031250 0.484375 0.000000
0.031250 0.500000 0.000000
0.031250 0.515625 0.000000
0.031250 0.531250 0.000000
0.031250 0.546875 0.000000
0.031250 0.562500 0.000000
0.031250 0.578125 0.000000
0.031250 0.593750 0.000000
0.031250 0.609375 0.000000
0.031250 0.625000 0.000000
0.031250 0.640625 0.000000
0.031250 0.656250 0.000000
0.031250 0.671875 0.000000
0.031250 0.687500 0.000000
0.031250 0.703125 0.000000
0.031250 0.718750 0.000000
0.031250 0.734375 0.000000
0.031250 0.750000 0.000000
0.031250 0.765625 0.000000
0.031250 0.781250 0.000000
0.031250 0.796875 0.000000
0.031250 0.812500 0.000000
0.031250 0.828125 0.000000
0.031250 0.843750 0.000000
0.031250 0.859375 0.000000
0.031250 0.875000 0.000000
0.031250 0.890625 0.000000
0.031250 0.906250 0.000000
0.031250 0.921875 0.000000
0.031250 0.937500 0.000000
0.031250 0.953125 0.000000
0.031250 0.968750 0.000000
0.031250 0.984375 0.000000
0.031250 1.000000 0.000000
0.046875 0.000000 0.000000
0.046875 0.015625 0.000000
0.046875 0.031250 0.000000
0.046875 0.046875 0.000000
0.046875 0.062500 0.000000
0.046875 0.078125 0.000000
0.046875 0.093750 0.000000
0.046875 0.109375 0.000000
0.046875 0.125000 0.000000
0.046875 0.140625 0.000000
0.046875 0.156250 0.000000
0.046875 0.171875 0.000000
0.046875 0.187500 0.000000
0.046875 0.203125 0.000000
0.046875 0.218750 0.000000
0.046875 0.234375 0.000000
0.046875 0.250000 0.000000
0.046875 0.265625 0.000000
0.046875 0.281250 0.000000
0.046875 0.296875 0.000000
0.046875 0.312500 0.000000
0.046875 0.328125 0.000000
0.046875 0.343750 0.000000
0.046875 0.359375 0.000000
0.046875 0.375000 0.000000
0.046875 0.390625 0.000000
0.046875 0.406250 0.000000
0.046875 0.421875 0.000000
0.046875 0.437500 0.000000
0.046875 0.453125 0.000000
0.046875 0.468750 0.000000
0.046875 0.484375 0.000000
0.046875 0.500000 0.000000
0.046875 0.515625 0.000000
0.046875 0.531250 0.000000
0.046875 0.546875 0.000000
0.046875 0.562500 0.000000
0.046875 0.578125 0.000000
0.046875 0.593750 0.000000
0.046875 0.609375 0.000000
0.046875 0.625000 0.000000
0.046875 0.640625 0.000000
0.046875 0.656250 0.000000
0.046875 0.671875 0.000000
0.046875 0.687500 0.000000
0.046875 0.703125 0.000000
0.046875 0.718750 0.000000
0.046875 0.734375 0.000000
0.046875 0.750000 0.000000
0.046875 0.765625 0.000000
0.046875 0.781250 0.000000
0.046875 0.796875 0.000000
0.046875 0.812500 0.000000
0.046875 0.828125 0.000000
0.046875 0.843750 0.000000
0.046875 0.859375 0.000000
0.046875 0.875000 0.000000
0.046875 0.890625 0.000000
0.046875 0.906250 0.000000
0.046875 0.921875 0.000000
0.046875 0.937500 0.000000
0.046875 0.953125 0.000000
0.046875 0.968750 0.000000
0.046875 0.984375 0.000000
0.046875 1.000000 0.000000
0.062500 0.000000 0.000000
0.062500 0.015625 0.000000
0.062500 0.031250 0.000000
0.062500 0.046875 0.000000
0.062500 0.062500 0.000000
0.062500 0.078125 0.000000
0.062500 0.093750 0.000000
0.062500 0.109375 0.000000
0.062500 0.125000 0.000000
0.062500 0.140625 0.000000
0.062500 0.156250 0.000000
0.062500 0.171875 0.000000
0.062500 0.187500 0.000000
0.062500 0.203125 0.000000
0.062500 0.218750 0.000000
0.062500 0.234375 0.000000
0.062500 0.250000 0.000000
0.062500 0.265625 0.000000
0.062500 0.281250 0.000000
0.062500 0.296875 0.000000
0.062500 0.312500 0.000000
0.062500 0.328125 0.000000
0.062500 0.343750 0.000000
0.062500 0.359375 0.000000
0.062500 0.375000 0.000000
0.062500 0.390625 0.000000
0.062500 0.406250 0.000000
0.062500 0.421875 0.000000
0.062500 0.437500 0.000000
0.062500 0.453125 0.000000
0.062500 0.468750 0.000000
0.062500 0.484375 0.000000
0.062500 0.500000 0.000000
0.062500 0.515625 0.000000
0.062500 0.531250 0.000000
0.062500 0.546875 0.000000
0.062500 0.562500 0.000000
0.062500 0.578125 0.000000
0.062500 0.593750 0.000000
0.062500 0.609375 0.000000
0.062500 0.625000 0.000000
0.062500 0.640625 0.000000
0.062500 0.656250 0.000000
0.062500 0.671875 0.000000
0.062500 0.687500 0.000000
0.062500 0.703125 0.000000
0.062500 0.718750 0.000000
0.062500 0.734375 0.000000
0.062500 0.750000 0.000000
0.062500 0.765625 0.000000
0.062500 0.781250 0.000000
0.062500 0.796875 0.000000
0.062500 0.812500 0.000000
0.062500 0.828125 0.000000
0.062500 0.843750 0.000000
0.062500 0.859375 0.000000
0.062500 0.875000 0.000000
0.062500 0.890625 0.000000
0.062500 0.906250 0.000000
0.062500 0.921875 0.000000
0.062500 0.937500 0.000000
0.062500 0.953125 0.000000
0.062500 0.968750 0.000000
0.062500 0.984375 0.000000
0.062500 1.000000 0.000000
0.078125 0.000000 0.000000
0.078125 0.015625 0.000000
0.078125 0.031250 0.000000
0.078125 0.046875 0.000000
0.078125 0.062500 0.000000
0.078125 0.078125 0.000000
0.078125 0.093750 0.000000
0.078125 0.109375 0.000000
0.078125 0.125000 0.000000
0.078125 0.140625 0.000000
0.078125 0.156250 0.000000
0.078125 0.171875 0.000000
0.078125 0.187500 0.000000
0.078125 0.203125 0.000000
0.078125 0.218750 0.000000
0.078125 0.234375 0.000000
0.078125 0.250000 0.000000
0.078125 0.265625 0.000000
0.078125 0.281250 0.000000
0.078125 0.296875 0.000000
0.078125 0.312500 0.000000
0.078125 0.328125 0.000000
0.078125 0.343750 0.000000
0.078125 0.359375 0.000000
0.078125 0.375000 0.000000
0.078125 0.390625 0.000000
0.078125 0.406250 0.000000
0.078125 0.421875 0.000000
[...]
POINT_DATA 4225
SCALARS potential double 1
LOOKUP_TABLE default
1.000000
0.995185
0.980785
0.956940
0.923880
0.881921
0.831470
0.773010
0.707107
0.634393
0.555570
0.471397
0.382683
0.290285
0.195090
0.098017
0.000000
-0.098017
-0.195090
-0.290285
-0.382683
-0.471397
-0.555570
-0.634393
-0.707107
-0.773010
-0.831470
-0.881921
-0.923880
-0.956940
-0.980785
-0.995185
-1.000000
-0.995185
-0.980785
-0.956940
-0.923880
-0.881921
-0.831470
-0.773010
-0.707107
-0.634393
-0.555570
-0.471397
-0.382683
-0.290285
-0.195090
-0.098017
-0.000000
0.098017
0.195090
0.290285
0.382683
0.471397
0.555570
0.634393
0.707107
0.773010
0.831470
0.881921
0.923880
0.956940
0.980785
0.995185
1.000000
0.895606
0.895606
0.884573
0.864069
0.834796
0.797239
0.751852
0.699122
0.639587
0.573837
0.502518
0.426325
0.345999
0.262316
0.176088
0.088146
-0.000660
-0.089472
-0.177435
-0.263699
-0.347434
-0.427831
-0.504116
-0.575554
-0.641456
-0.701187
-0.754171
-0.799898
-0.837928
-0.867893
-0.889506
-0.902557
-0.906921
-0.902557
-0.889506
-0.867893
-0.837928
-0.799898
-0.754171
-0.701187
-0.641456
-0.575554
-0.504116
-0.427831
-0.347434
-0.263699
-0.177435
-0.089472
-0.000660
0.088146
0.176088
0.262316
0.345999
0.426325
0.502518
0.573837
0.639587
0.699122
0.751852
0.797239
0.834796
0.864069
0.884573
0.895606
0.895606
0.807061
0.807061
0.797832
0.779968
0.753998
0.720385
0.679576
0.632040
0.578282
0.518850
0.454340
0.385388
0.312670
0.236894
0.158798
0.079139
-0.001312
-0.081777
-0.161478
-0.239644
-0.315522
-0.388378
-0.457510
-0.522251
-0.581976
-0.636110
-0.684130
-0.725573
-0.760040
-0.787199
-0.806787
-0.818616
-0.822572
-0.818616
-0.806787
-0.787199
-0.760040
-0.725573
-0.684130
-0.636110
-0.581976
-0.522251
-0.457510
-0.388378
-0.315522
-0.239644
-0.161478
-0.081777
-0.001312
0.079139
0.158798
0.236894
0.312670
0.385388
0.454340
0.518850
0.578282
0.632040
0.679576
0.720385
0.753998
0.779968
0.797832
0.807061
0.807061
0.727744
0.727744
0.719726
0.703972
0.680843
0.650727
0.614028
0.571180
0.522649
0.468942
0.410604
0.348217
0.282398
0.213793
0.143072
0.070923
-0.001951
-0.074846
-0.147054
-0.217877
-0.286630
-0.352649
-0.415295
-0.473963
-0.528088
-0.577147
-0.620665
-0.658225
-0.689462
-0.714075
-0.731828
-0.742548
-0.746134
-0.742548
-0.731828
-0.714075
-0.689462
-0.658225
-0.620665
-0.577147
-0.528088
-0.473963
-0.415295
-0.352649
-0.286630
-0.217877
-0.147054
-0.074846
-0.001951
0.070923
0.143072
0.213793
0.282398
0.348217
0.410604
0.468942
0.522649
0.571180
0.614028
0.650727
0.680843
0.703972
0.719726
0.727744
0.727744
0.656444
0.656444
0.649358
0.635349
0.614675
0.587651
0.554630
0.516002
0.472193
0.423665
0.370916
0.314478
0.254912
0.192808
0.128773
0.063435
-0.002571
-0.068602
-0.134016
-0.198181
-0.260474
-0.320292
-0.377057
-0.430220
-0.479266
-0.523723
-0.563161
-0.597198
-0.625506
-0.647812
-0.663901
-0.673616
-0.676865
-0.673616
-0.663901
-0.647812
-0.625506
-0.597198
-0.563161
-0.523723
-0.479266
-0.430220
-0.377057
-0.320292
-0.260474
-0.198181
-0.134016
-0.068602
-0.002571
0.063435
0.128773
0.192808
0.254912
0.314478
0.370916
0.423665
0.472193
0.516002
0.554630
0.587651
0.614675
0.635349
0.649358
0.656444
0.656444
0.592230
0.592230
0.585914
0.573391
0.554858
0.530573
0.500840
0.466006
0.426456
0.382608
0.334917
0.283866
0.229966
0.173752
0.115778
0.056613
-0.003165
-0.062973
-0.122229
-0.180356
-0.236792
-0.290989
-0.342421
-0.390592
-0.435034
-0.475319
-0.511056
-0.541900
-0.567553
-0.587767
-0.602346
-0.611151
-0.614095
-0.611151
-0.602346
-0.587767
-0.567553
-0.541900
-0.511056
-0.475319
-0.435034
-0.390592
-0.342421
-0.290989
-0.236792
-0.180356
-0.122229
-0.062973
-0.003165
0.056613
0.115778
0.173752
0.229966
0.283866
0.334917
0.382608
0.426456
0.466006
0.500840
0.530573
0.554858
0.573391
0.585914
0.592230
0.592230
0.534332
0.534332
0.528675
0.517444
0.500794
0.478941
0.452150
0.420726
0.385015
0.345396
0.302279
0.256103
0.207334
0.156456
0.103974
0.050404
-0.003730
-0.057896
-0.111569
-0.164223
-0.215349
-0.264449
-0.311048
-0.354692
-0.394960
-0.431462
-0.463844
-0.491793
-0.515039
-0.533356
-0.546567
-0.554546
-0.557214
-0.554546
-0.546567
-0.533356
-0.515039
-0.491793
-0.463844
-0.431462
-0.394960
-0.354692
-0.311048
-0.264449
-0.215349
-0.164223
-0.111569
-0.057896
-0.003730
0.050404
0.103974
0.156456
0.207334
0.256103
0.302279
0.345396
0.385015
0.420726
0.452150
0.478941
0.500794
0.517444
0.528675
0.534332
0.534332
0.482092
0.482092
0.477010
0.466914
0.451933
0.432249
0.408092
0.379734
0.347483
0.311681
0.272699
0.230935
0.186810
0.140765
0.093258
0.044757
-0.004261
-0.053315
-0.101926
-0.149620
-0.195932
-0.240412
-0.282628
-0.322169
-0.358653
-0.391725
-0.421066
-0.446390
-0.467453
-0.484050
-0.496021
-0.503251
-0.505668
-0.503251
-0.496021
-0.484050
-0.467453
-0.446390
-0.421066
-0.391725
-0.358653
-0.322169
-0.282628
-0.240412
-0.195932
-0.149620
-0.101926
-0.053315
-0.004261
0.044757
0.093258
0.140765
0.186810
0.230935
0.272699
0.311681
0.347483
0.379734
0.408092
0.432249
0.451933
0.466914
0.477010
0.482092
0.482092
0.434933
0.434933
0.430360
0.421271
0.407774
0.390028
0.368235
0.342634
0.313502
0.281146
0.245901
0.208127
0.168206
0.126537
0.083536
0.039628
-0.004755
-0.049176
-0.093200
-0.136398
-0.178347
-0.218639
-0.256882
-0.292704
-0.325757
-0.355720
-0.382303
-0.405248
-0.424332
-0.439370
-0.450217
-0.456768
-0.458958
-0.456768
-0.450217
-0.439370
-0.424332
-0.405248
-0.382303
-0.355720
-0.325757
-0.292704
-0.256882
-0.218639
-0.178347
-0.136398
-0.093200
-0.049176
-0.004755
0.039628
0.083536
0.126537
0.168206
0.208127
0.245901
0.281146
0.313502
0.342634
0.368235
0.390028
0.407774
0.421271
0.430360
0.434933
0.434933
0.392347
0.392347
0.388227
0.380035
0.367865
0.351856
0.332185
0.309066
0.282746
0.253500
0.221632
0.187466
0.151348
0.113641
0.074721
0.034972
-0.005211
-0.045434
-0.085302
-0.124424
-0.162419
-0.198915
-0.233557
-0.266007
-0.295951
-0.323096
-0.347179
-0.367967
-0.385257
-0.398882
-0.408710
-0.414645
-0.416629
-0.414645
-0.408710
-0.398882
-0.385257
-0.367967
-0.347179
-0.323096
-0.295951
-0.266007
-0.233557
-0.198915
-0.162419
-0.124424
-0.085302
-0.045434
-0.005211
0.034972
0.074721
0.113641
0.151348
0.187466
0.221632
0.253500
0.282746
0.309066
0.332185
0.351856
0.367865
0.380035
0.388227
0.392347
0.392347
0.353881
0.353881
0.350165
0.342776
0.331795
0.317345
0.299583
0.278699
0.254914
0.228477
0.199660
0.168757
0.136081
0.101959
0.066733
0.030752
-0.005627
-0.042047
-0.078149
-0.113578
-0.147989
-0.181045
-0.212423
-0.241818
-0.268942
-0.293533
-0.315351
-0.334183
-0.349847
-0.362191
-0.371095
-0.376472
-0.378270
-0.376472
-0.371095
-0.362191
-0.349847
-0.334183
-0.315351
-0.293533
-0.268942
-0.241818
-0.212423
-0.181045
-0.147989
-0.113578
-0.078149
-0.042047
-0.005627
0.030752
0.066733
0.101959
0.136081
0.168757
0.199660
0.228477
0.254914
0.278699
0.299583
0.317345
0.331795
0.342776
0.350165
0.353881
0.353881
0.319131
0.319131
0.315778
0.309108
0.299195
0.286147
0.270103
0.251233
0.229736
0.205834
0.179775
0.151822
0.122258
0.091382
0.059500
0.026931
-0.006003
-0.038978
-0.071667
-0.103751
-0.134915
-0.164853
-0.193273
-0.219898
-0.244468
-0.266743
-0.286507
-0.303568
-0.317758
-0.328940
-0.337007
-0.341878
-0.343507
-0.341878
-0.337007
-0.328940
-0.317758
-0.303568
-0.286507
-0.266743
-0.244468
-0.219898
-0.193273
-0.164853
-0.134915
-0.103751
-0.071667
-0.038978
-0.006003
0.026931
0.059500
0.091382
0.122258
0.151822
0.179775
0.205834
0.229736
0.251233
0.270103
0.286147
0.299195
0.309108
0.315778
0.319131
0.319131
0.287734
0.287734
0.284706
0.278684
0.269731
0.257944
0.243447
0.226394
0.206961
0.185350
0.161782
0.136496
0.109749
0.081809
0.052955
0.023475
-0.006340
-0.036193
-0.065792
-0.094845
-0.123066
-0.150179
-0.175919
-0.200034
-0.222288
-0.242465
-0.260368
-0.275822
-0.288676
-0.298806
-0.306113
-0.310526
-0.312002
-0.310526
-0.306113
-0.298806
-0.288676
-0.275822
-0.260368
-0.242465
-0.222288
-0.200034
-0.175919
-0.150179
-0.123066
-0.094845
-0.065792
-0.036193
-0.006340
0.023475
0.052955
0.081809
0.109749
0.136496
0.161782
0.185350
0.206961
0.226394
0.243447
0.257944
0.269731
0.278684
0.284706
0.287734
0.287734
0.259364
0.259364
0.256630
0.251189
0.243101
0.232451
0.219349
0.203934
0.186365
0.166823
0.145506
0.122633
0.098433
0.073150
0.047036
0.020353
-0.006637
-0.033664
-0.060463
-0.086769
-0.112325
-0.136878
-0.160189
-0.182030
-0.202186
-0.220462
-0.236677
-0.250675
-0.262319
-0.271495
-0.278114
-0.282111
-0.283448
-0.282111
-0.278114
-0.271495
-0.262319
-0.250675
-0.236677
-0.220462
-0.202186
-0.182030
-0.160189
-0.136878
-0.112325
-0.086769
-0.060463
-0.033664
-0.006637
0.020353
0.047036
0.073150
0.098433
0.122633
0.145506
0.166823
0.186365
0.203934
0.219349
0.232451
0.243101
0.251189
0.256630
0.259364
0.259364
0.233730
0.233730
0.231259
0.226343
0.219034
0.209408
0.197565
0.183629
0.167743
0.150069
0.130788
0.110096
0.088200
0.065321
0.041688
0.017536
-0.006895
-0.031363
-0.055626
-0.079445
-0.102585
-0.124820
-0.145931
-0.165710
-0.183965
-0.200517
-0.215204
-0.227883
-0.238430
-0.246741
-0.252737
-0.256357
-0.257568
-0.256357
-0.252737
-0.246741
-0.238430
-0.227883
-0.215204
-0.200517
-0.183965
-0.165710
-0.145931
-0.124820
-0.102585
-0.079445
-0.055626
-0.031363
-0.006895
0.017536
0.041688
0.065321
0.088200
0.110096
0.130788
0.150069
0.167743
0.183629
0.197565
0.209408
0.219034
0.226343
0.231259
0.233730
0.233730
0.210566
0.210566
0.208333
0.203890
0.197283
0.188581
0.177875
0.165274
0.150908
0.134923
0.117482
0.098761
0.078950
0.058247
0.036858
0.014998
-0.007117
-0.029267
-0.051233
-0.072799
-0.093752
-0.113886
-0.133003
-0.150915
-0.167447
-0.182438
-0.195740
-0.207223
-0.216775
-0.224303
-0.229734
-0.233013
-0.234110
-0.233013
-0.229734
-0.224303
-0.216775
-0.207223
-0.195740
-0.182438
-0.167447
-0.150915
-0.133003
-0.113886
-0.093752
-0.072799
-0.051233
-0.029267
-0.007117
0.014998
0.036858
0.058247
0.078950
0.098761
0.117482
0.134923
0.150908
0.165274
0.177875
0.188581
0.197283
0.203890
0.208333
0.210566
0.210566
0.189635
0.189635
0.187616
0.183600
0.177627
0.169760
0.160079
0.148684
0.135691
0.121232
0.105455
0.088518
0.070592
0.051857
0.032500
0.012715
-0.007303
-0.027355
-0.047241
-0.066766
-0.085738
-0.103968
-0.121279
-0.137500
-0.152471
-0.166047
-0.178094
-0.188494
-0.197145
-0.203963
-0.208881
-0.211852
-0.212845
-0.211852
-0.208881
-0.203963
-0.197145
-0.188494
-0.178094
-0.166047
-0.152471
-0.137500
-0.121279
-0.103968
-0.085738
-0.066766
-0.047241
-0.027355
-0.007303
0.012715
0.032500
0.051857
0.070592
0.088518
0.105455
0.121232
0.135691
0.148684
0.160079
0.169760
0.177627
0.183600
0.187616
0.189635
0.189635
0.170723
0.170723
0.168898
0.165267
0.159866
0.152752
0.143998
0.133692
0.121940
0.108861
0.094588
0.079264
0.063044
0.046090
0.028571
0.010663
-0.007456
-0.025607
-0.043610
-0.061287
-0.078464
-0.094971
-0.110645
-0.125334
-0.138891
-0.151185
-0.162095
-0.171513
-0.179348
-0.185523
-0.189977
-0.192667
-0.193567
-0.192667
-0.189977
-0.185523
-0.179348
-0.171513
-0.162095
-0.151185
-0.138891
-0.125334
-0.110645
-0.094971
-0.078464
-0.061287
-0.043610
-0.025607
-0.007456
0.010663
0.028571
0.046090
0.063044
0.079264
0.094588
0.108861
0.121940
0.133692
0.143998
0.152752
0.159866
0.165267
0.168898
0.170723
0.170723
0.153636
0.153636
0.151986
0.148702
0.143818
0.137385
0.129467
0.120146
0.109516
0.097684
0.084771
0.070906
0.056229
0.040886
0.025032
0.008824
-0.007577
-0.024008
-0.040306
-0.056309
-0.071860
-0.086806
-0.100998
-0.114298
-0.126575
-0.137707
-0.147587
-0.156116
-0.163211
-0.168803
-0.172837
-0.175273
-0.176088
-0.175273
-0.172837
-0.168803
-0.163211
-0.156116
-0.147587
-0.137707
-0.126575
-0.114298
-0.100998
-0.086806
-0.071860
-0.056309
-0.040306
-0.024008
-0.007577
0.008824
0.025032
0.040886
0.056229
0.070906
0.084771
0.097684
0.109516
0.120146
0.129467
0.137385
0.143818
0.148702
0.151986
0.153636
0.153636
0.138200
0.138200
0.136707
0.133737
0.129321
0.123502
0.116340
0.107909
0.098292
0.087589
0.075906
0.063360
0.050079
0.036195
0.021846
0.007177
-0.007668
-0.022542
-0.037295
-0.051783
-0.065862
-0.079393
-0.092244
-0.104286
-0.115402
-0.125483
-0.134429
-0.142152
-0.148578
-0.153642
-0.157295
-0.159501
-0.160239
-0.159501
-0.157295
-0.153642
-0.148578
-0.142152
-0.134429
-0.125483
-0.115402
-0.104286
-0.092244
-0.079393
-0.065862
-0.051783
-0.037295
-0.022542
-0.007668
0.007177
0.021846
0.036195
0.050079
0.063360
0.075906
0.087589
0.098292
0.107909
0.116340
0.123502
0.129321
0.133737
0.136707
0.138200
0.138200
0.124256
0.124256
0.122906
0.120220
0.116225
0.110962
0.104484
0.096856
0.088157
0.078473
0.067902
0.056551
0.044533
0.031968
0.018982
0.005705
-0.007732
-0.021195
-0.034550
-0.047666
-0.060412
-0.072662
-0.084297
-0.095200
-0.105265
-0.114393
-0.122494
-0.129487
-0.135306
-0.139891
-0.143199
-0.145197
-0.145865
-0.145197
-0.143199
-0.139891
-0.135306
-0.129487
-0.122494
-0.114393
-0.105265
-0.095200
-0.084297
-0.072662
-0.060412
-0.047666
-0.034550
-0.021195
-0.007732
0.005705
0.018982
0.031968
0.044533
0.056551
0.067902
0.078473
0.088157
0.096856
0.104484
0.110962
0.116225
0.120220
0.122906
0.124256
0.124256
0.111662
0.111662
0.110441
0.108011
0.104397
0.099636
0.093776
0.086876
0.079006
0.070244
0.060680
0.050408
0.039533
0.028162
0.016410
0.004393
-0.007769
-0.019955
-0.032045
-0.043918
-0.055457
-0.066548
-0.077081
-0.086953
-0.096066
-0.104330
-0.111665
-0.117998
-0.123266
-0.127418
-0.130414
-0.132223
-0.132828
-0.132223
-0.130414
-0.127418
-0.123266
-0.117998
-0.111665
-0.104330
-0.096066
-0.086953
-0.077081
-0.066548
-0.055457
-0.043918
-0.032045
-0.019955
-0.007769
0.004393
0.016410
0.028162
0.039533
0.050408
0.060680
0.070244
0.079006
0.086876
0.093776
0.099636
0.104397
0.108011
0.110441
0.111662
0.111662
0.100288
0.100288
0.099184
0.096986
0.093717
0.089410
0.084109
0.077866
0.070745
0.062818
0.054164
0.044869
0.035028
0.024738
0.014102
0.003225
-0.007783
-0.018813
-0.029756
-0.040504
-0.050950
-0.060990
-0.070526
-0.079464
-0.087715
-0.095198
-0.101839
-0.107572
-0.112343
-0.116102
-0.118815
-0.120453
-0.121000
-0.120453
-0.118815
-0.116102
-0.112343
-0.107572
-0.101839
-0.095198
-0.087715
-0.079464
-0.070526
-0.060990
-0.050950
-0.040504
-0.029756
-0.018813
-0.007783
0.003225
0.014102
0.024738
0.035028
0.044869
0.054164
0.062818
0.070745
0.077866
0.084109
0.089410
0.093717
0.096986
0.099184
0.100288
0.100288
0.090020
0.090020
0.089021
0.087032
0.084075
0.080179
0.075382
0.069735
0.063292
0.056119
0.048288
0.039878
0.030972
0.021660
0.012034
0.002190
-0.007773
-0.017757
-0.027663
-0.037392
-0.046848
-0.055938
-0.064571
-0.072662
-0.080132
-0.086907
-0.092919
-0.098111
-0.102430
-0.105834
-0.108290
-0.109773
-0.110269
-0.109773
-0.108290
-0.105834
-0.102430
-0.098111
-0.092919
-0.086907
-0.080132
-0.072662
-0.064571
-0.055938
-0.046848
-0.037392
-0.027663
-0.017757
-0.007773
0.002190
0.012034
0.021660
0.030972
0.039878
0.048288
0.056119
0.063292
0.069735
0.075382
0.080179
0.084075
0.087032
0.089021
0.090020
0.090020
0.080750
0.080750
0.079846
0.078048
0.075372
0.071847
0.067508
0.062398
0.056568
0.050078
0.042992
0.035382
0.027322
0.018895
0.010183
0.001274
-0.007744
-0.016780
-0.025747
-0.034553
-0.043113
-0.051341
-0.059156
-0.066482
-0.073244
-0.079378
-0.084821
-0.089521
-0.093432
-0.096514
-0.098737
-0.100080
-0.100529
-0.100080
-0.098737
-0.096514
-0.093432
-0.089521
-0.084821
-0.079378
-0.073244
-0.066482
-0.059156
-0.051341
-0.043113
-0.034553
-0.025747
-0.016780
-0.007744
0.001274
0.010183
0.018895
0.027322
0.035382
0.042992
0.050078
0.056568
0.062398
0.067508
0.071847
0.075372
0.078048
0.079846
0.080750
0.080750
0.072385
0.072385
0.071567
0.069939
0.067519
0.064330
0.060403
0.055780
0.050505
0.044633
0.038221
0.031334
0.024041
0.016414
0.008530
0.000467
-0.007695
-0.015874
-0.023990
-0.031961
-0.039709
-0.047158
-0.054232
-0.060864
-0.066986
-0.072538
-0.077466
-0.081722
-0.085262
-0.088052
-0.090065
-0.091281
-0.091688
-0.091281
-0.090065
-0.088052
-0.085262
-0.081722
-0.077466
-0.072538
-0.066986
-0.060864
-0.054232
-0.047158
-0.039709
-0.031961
-0.023990
-0.015874
-0.007695
0.000467
0.008530
0.016414
0.024041
0.031334
0.038221
0.044633
0.050505
0.055780
0.060403
0.064330
0.067519
0.069939
0.071567
0.072385
0.072385
0.064837
0.064837
0.064097
0.062625
0.060435
0.057549
0.053997
0.049813
0.045041
0.039727
0.033925
0.027693
0.021093
0.014191
0.007056
-0.000241
-0.007628
-0.015031
-0.022377
-0.029592
-0.036606
-0.043348
-0.049752
-0.055755
-0.061297
-0.066323
-0.070785
-0.074637
-0.077842
-0.080368
-0.082191
-0.083291
-0.083659
-0.083291
-0.082191
-0.080368
-0.077842
-0.074637
-0.070785
-0.066323
-0.061297
-0.055755
-0.049752
-0.043348
-0.036606
-0.029592
-0.022377
-0.015031
-0.007628
-0.000241
0.007056
0.014191
0.021093
0.027693
0.033925
0.039727
0.045041
0.049813
0.053997
0.057549
0.060435
0.062625
0.064097
0.064837
0.064837
0.058029
0.058029
0.057359
0.056027
0.054046
0.051435
0.048221
0.044436
0.040117
0.035309
0.030059
0.024420
0.018447
0.012201
0.005744
-0.000860
-0.007546
-0.014246
-0.020894
-0.027425
-0.033773
-0.039876
-0.045673
-0.051107
-0.056124
-0.060674
-0.064712
-0.068200
-0.071101
-0.073388
-0.075038
-0.076034
-0.076367
-0.076034
-0.075038
-0.073388
-0.071101
-0.068200
-0.064712
-0.060674
-0.056124
-0.051107
-0.045673
-0.039876
-0.033773
-0.027425
-0.020894
-0.014246
-0.007546
-0.000860
0.005744
0.012201
0.018447
0.024420
0.030059
0.035309
0.040117
0.044436
0.048221
0.051435
0.054046
0.056027
0.057359
0.058029
0.058029
0.051890
0.051890
0.051285
0.050079
0.048287
0.045924
0.043016
0.039591
0.035684
0.031333
0.026583
0.021479
0.016075
0.010422
0.004579
-0.001398
-0.007448
-0.013512
-0.019530
-0.025440
-0.031186
-0.036710
-0.041957
-0.046876
-0.051417
-0.055536
-0.059191
-0.062348
-0.064974
-0.067045
-0.068538
-0.069440
-0.069742
-0.069440
-0.068538
-0.067045
-0.064974
-0.062348
-0.059191
-0.055536
-0.051417
-0.046876
-0.041957
-0.036710
-0.031186
-0.025440
-0.019530
-0.013512
-0.007448
-0.001398
0.004579
0.010422
0.016075
0.021479
0.026583
0.031333
0.035684
0.039591
0.043016
0.045924
0.048287
0.050079
0.051284
0.051890
0.051890
0.046357
0.046357
0.045809
0.044719
0.043097
0.040959
0.038328
0.035229
0.031694
0.027757
0.023458
0.018841