# vtk DataFile Version 3.0
Result Field
ASCII
DATASET STRUCTURED_GRID
DIMENSIONS 257 257 1
POINTS 66049 double
0.000000 0.000000 0.000000
0.000000 0.003906 0.000000
0.000000 0.007813 0.000000
0.000000 0.011719 0.000000
0.000000 0.015625 0.000000
0.000000 0.019531 0.000000
0.000000 0.023438 0.000000
0.000000 0.027344 0.000000
0.000000 0.031250 0.000000
0.000000 0.035156 0.000000
0.000000 0.039063 0.000000
0.000000 0.042969 0.000000
0.000000 0.046875 0.000000
0.000000 0.050781 0.000000
0.000000 0.054688 0.000000
0.000000 0.058594 0.000000
0.000000 0.062500 0.000000
0.000000 0.066406 0.000000
0.000000 0.070313 0.000000
0.000000 0.074219 0.000000
0.000000 0.078125 0.000000
0.000000 0.082031 0.000000
0.000000 0.085938 0.000000
0.000000 0.089844 0.000000
0.000000 0.093750 0.000000
0.000000 0.097656 0.000000
0.000000 0.101563 0.000000
0.000000 0.105469 0.000000
0.000000 0.109375 0.000000
0.000000 0.113281 0.000000
0.000000 0.117188 0.000000
0.000000 0.121094 0.000000
0.000000 0.125000 0.000000
0.000000 0.128906 0.000000
0.000000 0.132813 0.000000
0.000000 0.136719 0.000000
0.000000 0.140625 0.000000
0.000000 0.144531 0.000000
0.000000 0.148438 0.000000
0.000000 0.152344 0.000000
0.000000 0.156250 0.000000
0.000000 0.160156 0.000000
0.000000 0.164063 0.000000
0.000000 0.167969 0.000000
0.000000 0.171875 0.000000
0.000000 0.175781 0.000000
0.000000 0.179688 0.000000
0.000000 0.183594 0.000000
0.000000 0.187500 0.000000
0.000000 0.191406 0.000000
0.000000 0.195313 0.000000
0.000000 0.199219 0.000000
0.000000 0.203125 0.000000
0.000000 0.207031 0.000000
0.000000 0.210938 0.000000
0.000000 0.214844 0.000000
0.000000 0.218750 0.000000
0.000000 0.222656 0.000000
0.000000 0.226563 0.000000
0.000000 0.230469 0.000000
0.000000 0.234375 0.000000
0.000000 0.238281 0.000000
0.000000 0.242188 0.000000
0.000000 0.246094 0.000000
0.000000 0.250000 0.000000
0.000000 0.253906 0.000000
0.000000 0.257813 0.000000
0.000000 0.261719 0.000000
0.000000 0.265625 0.000000
0.000000 0.269531 0.000000
0.000000 0.273438 0.000000
0.000000 0.277344 0.000000
0.000000 0.281250 0.000000
0.000000 0.285156 0.000000
0.000000 0.289063 0.000000
0.000000 0.292969 0.000000
0.000000 0.296875 0.000000
0.000000 0.300781 0.000000
0.000000 0.304688 0.000000
0.000000 0.308594 0.000000
0.000000 0.312500 0.000000
0.000000 0.316406 0.000000
0.000000 0.320313 0.000000
0.000000 0.324219 0.000000
0.000000 0.328125 0.000000
0.000000 0.332031 0.000000
0.000000 0.335938 0.000000
0.000000 0.339844 0.000000
0.000000 0.343750 0.000000
0.000000 0.347656 0.000000
0.000000 0.351563 0.000000
0.000000 0.355469 0.000000
0.000000 0.359375 0.000000
0.000000 0.363281 0.000000
0.000000 0.367188 0.000000
0.000000 0.371094 0.000000
0.000000 0.375000 0.000000
0.000000 0.378906 0.000000
0.000000 0.382813 0.000000
0.000000 0.386719 0.000000
0.000000 0.390625 0.000000
0.000000 0.394531 0.000000
0.000000 0.398438 0.000000
0.000000 0.402344 0.000000
0.000000 0.406250 0.000000
0.000000 0.410156 0.000000
0.000000 0.414063 0.000000
0.000000 0.417969 0.000000
0.000000 0.421875 0.000000
0.000000 0.425781 0.000000
0.000000 0.429688 0.000000
0.000000 0.433594 0.000000
0.000000 0.437500 0.000000
0.000000 0.441406 0.000000
0.000000 0.445313 0.000000
0.000000 0.449219 0.000000
0.000000 0.453125 0.000000
0.000000 0.457031 0.000000
0.000000 0.460938 0.000000
0.000000 0.464844 0.000000
0.000000 0.468750 0.000000
0.000000 0.472656 0.000000
0.000000 0.476563 0.000000
0.000000 0.480469 0.000000
0.000000 0.484375 0.000000
0.000000 0.488281 0.000000
0.000000 0.492188 0.000000
0.000000 0.496094 0.000000
0.000000 0.500000 0.000000
0.000000 0.503906 0.000000
0.000000 0.507813 0.000000
0.000000 0.511719 0.000000
0.000000 0.515625 0.000000
0.000000 0.519531 0.000000
0.000000 0.523438 0.000000
0.000000 0.527344 0.000000
0.000000 0.531250 0.000000
0.000000 0.535156 0.000000
0.000000 0.539063 0.000000
0.000000 0.542969 0.000000
0.000000 0.546875 0.000000
0.000000 0.550781 0.000000
0.000000 0.554688 0.000000
0.000000 0.558594 0.000000
0.000000 0.562500 0.000000
0.000000 0.566406 0.000000
0.000000 0.570313 0.000000
0.000000 0.574219 0.000000
0.000000 0.578125 0.000000
0.000000 0.582031 0.000000
0.000000 0.585938 0.000000
0.000000 0.589844 0.000000
0.000000 0.593750 0.000000
0.000000 0.597656 0.000000
0.000000 0.601563 0.000000
0.000000 0.605469 0.000000
0.000000 0.609375 0.000000
0.000000 0.613281 0.000000
0.000000 0.617188 0.000000
0.000000 0.621094 0.000000
0.000000 0.625000 0.000000
0.000000 0.628906 0.000000
0.000000 0.632813 0.000000
0.000000 0.636719 0.000000
0.000000 0.640625 0.000000
0.000000 0.644531 0.000000
0.000000 0.648438 0.000000
0.000000 0.652344 0.000000
0.000000 0.656250 0.000000
0.000000 0.660156 0.000000
0.000000 0.664063 0.000000
0.000000 0.667969 0.000000
0.000000 0.671875 0.000000
0.000000 0.675781 0.000000
0.000000 0.679688 0.000000
0.000000 0.683594 0.000000
0.000000 0.687500 0.000000
0.000000 0.691406 0.000000
0.000000 0.695313 0.000000
0.000000 0.699219 0.000000
0.000000 0.703125 0.000000
0.000000 0.707031 0.000000
0.000000 0.710938 0.000000
0.000000 0.714844 0.000000
0.000000 0.718750 0.000000
0.000000 0.722656 0.000000
0.000000 0.726563 0.000000
0.000000 0.730469 0.000000
0.000000 0.734375 0.000000
0.000000 0.738281 0.000000
0.000000 0.742188 0.000000
0.000000 0.746094 0.000000
0.000000 0.750000 0.000000
0.000000 0.753906 0.000000
0.000000 0.757813 0.000000
0.000000 0.761719 0.000000
0.000000 0.765625 0.000000
0.000000 0.769531 0.000000
0.000000 0.773438 0.000000
0.000000 0.777344 0.000000
0.000000 0.781250 0.000000
0.000000 0.785156 0.000000
0.000000 0.789063 0.000000
0.000000 0.792969 0.000000
0.000000 0.796875 0.000000
0.000000 0.800781 0.000000
0.000000 0.804688 0.000000
0.000000 0.808594 0.000000
0.000000 0.812500 0.000000
0.000000 0.816406 0.000000
0.000000 0.820313 0.000000
0.000000 0.824219 0.000000
0.000000 0.828125 0.000000
0.000000 0.832031 0.000000
0.000000 0.835938 0.000000
0.000000 0.839844 0.000000
0.000000 0.843750 0.000000
0.000000 0.847656 0.000000
0.000000 0.851563 0.000000
0.000000 0.855469 0.000000
0.000000 0.859375 0.000000
0.000000 0.863281 0.000000
0.000000 0.867188 0.000000
0.000000 0.871094 0.000000
0.000000 0.875000 0.000000
0.000000 0.878906 0.000000
0.000000 0.882813 0.000000
0.000000 0.886719 0.000000
0.000000 0.890625 0.000000
0.000000 0.894531 0.000000
0.000000 0.898438 0.000000
0.000000 0.902344 0.000000
0.000000 0.906250 0.000000
0.000000 0.910156 0.000000
0.000000 0.914063 0.000000
0.000000 0.917969 0.000000
0.000000 0.921875 0.000000
0.000000 0.925781 0.000000
0.000000 0.929688 0.000000
0.000000 0.933594 0.000000
0.000000 0.937500 0.000000
0.000000 0.941406 0.000000
0.000000 0.945313 0.000000
0.000000 0.949219 0.000000
0.000000 0.953125 0.000000
0.000000 0.957031 0.000000
0.000000 0.960938 0.000000
0.000000 0.964844 0.000000
0.000000 0.968750 0.000000
0.000000 0.972656 0.000000
0.000000 0.976563 0.000000
0.000000 0.980469 0.000000
0.000000 0.984375 0.000000
0.000000 0.988281 0.000000
0.000000 0.992188 0.000000
0.000000 0.996094 0.000000
0.000000 1.000000 0.000000
0.003906 0.000000 0.000000
0.003906 0.003906 0.000000
0.003906 0.007813 0.000000
0.003906 0.011719 0.000000
0.003906 0.015625 0.000000
0.003906 0.019531 0.000000
0.003906 0.023438 0.000000
0.003906 0.027344 0.000000
0.003906 0.031250 0.000000
0.003906 0.035156 0.000000
0.003906 0.039063 0.000000
0.003906 0.042969 0.000000
0.003906 0.046875 0.000000
0.003906 0.050781 0.000000
0.003906 0.054688 0.000000
0.003906 0.058594 0.000000
0.003906 0.062500 0.000000
0.003906 0.066406 0.000000
0.003906 0.070313 0.000000
0.003906 0.074219 0.000000
0.003906 0.078125 0.000000
0.003906 0.082031 0.000000
0.003906 0.085938 0.000000
0.003906 0.089844 0.000000
0.003906 0.093750 0.000000
0.003906 0.097656 0.000000
0.003906 0.101563 0.000000
0.003906 0.105469 0.000000
0.003906 0.109375 0.000000
0.003906 0.113281 0.000000
0.003906 0.117188 0.000000
0.003906 0.121094 0.000000
0.003906 0.125000 0.000000
0.003906 0.128906 0.000000
0.003906 0.132813 0.000000
0.003906 0.136719 0.000000
0.003906 0.140625 0.000000
0.003906 0.144531 0.000000
0.003906 0.148438 0.000000
0.003906 0.152344 0.000000
0.003906 0.156250 0.000000
0.003906 0.160156 0.000000
0.003906 0.164063 0.000000
0.003906 0.167969 0.000000
0.003906 0.171875 0.000000
0.003906 0.175781 0.000000
0.003906 0.179688 0.000000
0.003906 0.183594 0.000000
0.003906 0.187500 0.000000
0.003906 0.191406 0.000000
0.003906 0.195313 0.000000
0.003906 0.199219 0.000000
0.003906 0.203125 0.000000
0.003906 0.207031 0.000000
0.003906 0.210938 0.000000
0.003906 0.214844 0.000000
0.003906 0.218750 0.000000
0.003906 0.222656 0.000000
0.003906 0.226563 0.000000
0.003906 0.230469 0.000000
0.003906 0.234375 0.000000
0.003906 0.238281 0.000000
0.003906 0.242188 0.000000
0.003906 0.246094 0.000000
0.003906 0.250000 0.000000
0.003906 0.253906 0.000000
0.003906 0.257813 0.000000
0.003906 0.261719 0.000000
0.003906 0.265625 0.000000
0.003906 0.269531 0.000000
0.003906 0.273438 0.000000
0.003906 0.277344 0.000000
0.003906 0.281250 0.000000
0.003906 0.285156 0.000000
0.003906 0.289063 0.000000
0.003906 0.292969 0.000000
0.003906 0.296875 0.000000
0.003906 0.300781 0.000000
0.003906 0.304688 0.000000
0.003906 0.308594 0.000000
0.003906 0.312500 0.000000
0.003906 0.316406 0.000000
0.003906 0.320313 0.000000
0.003906 0.324219 0.000000
0.003906 0.328125 0.000000
0.003906 0.332031 0.000000
0.003906 0.335938 0.000000
0.003906 0.339844 0.000000
0.003906 0.343750 0.000000
0.003906 0.347656 0.000000
0.003906 0.351563 0.000000
0.003906 0.355469 0.000000
0.003906 0.359375 0.000000
0.003906 0.363281 0.000000
0.003906 0.367188 0.000000
[...]
POINT_DATA 66049
SCALARS potential double 1
LOOKUP_TABLE default
1.000000
0.999699
0.998795
0.997290
0.995185
0.992480
0.989177
0.985278
0.980785
0.975702
0.970031
0.963776
0.956940
0.949528
0.941544
0.932993
0.923880
0.914210
0.903989
0.893224
0.881921
0.870087
0.857729
0.844854
0.831470
0.817585
0.803208
0.788346
0.773010
0.757209
0.740951
0.724247
0.707107
0.689541
0.671559
0.653173
0.634393
0.615232
0.595699
0.575808
0.555570
0.534998
0.514103
0.492898
0.471397
0.449611
0.427555
0.405241
0.382683
0.359895
0.336890
0.313682
0.290285
0.266713
0.242980
0.219101
0.195090
0.170962
0.146730
0.122411
0.098017
0.073565
0.049068
0.024541
0.000000
-0.024541
-0.049068
-0.073565
-0.098017
-0.122411
-0.146730
-0.170962
-0.195090
-0.219101
-0.242980
-0.266713
-0.290285
-0.313682
-0.336890
-0.359895
-0.382683
-0.405241
-0.427555
-0.449611
-0.471397
-0.492898
-0.514103
-0.534998
-0.555570
-0.575808
-0.595699
-0.615232
-0.634393
-0.653173
-0.671559
-0.689541
-0.707107
-0.724247
-0.740951
-0.757209
-0.773010
-0.788346
-0.803208
-0.817585
-0.831470
-0.844854
-0.857729
-0.870087
-0.881921
-0.893224
-0.903989
-0.914210
-0.923880
-0.932993
-0.941544
-0.949528
-0.956940
-0.963776
-0.970031
-0.975702
-0.980785
-0.985278
-0.989177
-0.992480
-0.995185
-0.997290
-0.998795
-0.999699
-1.000000
-0.999699
-0.998795
-0.997290
-0.995185
-0.992480
-0.989177
-0.985278
-0.980785
-0.975702
-0.970031
-0.963776
-0.956940
-0.949528
-0.941544
-0.932993
-0.923880
-0.914210
-0.903989
-0.893224
-0.881921
-0.870087
-0.857729
-0.844854
-0.831470
-0.817585
-0.803208
-0.788346
-0.773010
-0.757209
-0.740951
-0.724247
-0.707107
-0.689541
-0.671559
-0.653173
-0.634393
-0.615232
-0.595699
-0.575808
-0.555570
-0.534998
-0.514103
-0.492898
-0.471397
-0.449611
-0.427555
-0.405241
-0.382683
-0.359895
-0.336890
-0.313682
-0.290285
-0.266713
-0.242980
-0.219101
-0.195090
-0.170962
-0.146730
-0.122411
-0.098017
-0.073565
-0.049068
-0.024541
-0.000000
0.024541
0.049068
0.073565
0.098017
0.122411
0.146730
0.170962
0.195090
0.219101
0.242980
0.266713
0.290285
0.313682
0.336890
0.359895
0.382683
0.405241
0.427555
0.449611
0.471397
0.492898
0.514103
0.534998
0.555570
0.575808
0.595699
0.615232
0.634393
0.653173
0.671559
0.689541
0.707107
0.724247
0.740951
0.757209
0.773010
0.788346
0.803208
0.817585
0.831470
0.844854
0.857729
0.870087
0.881921
0.893224
0.903989
0.914210
0.923880
0.932993
0.941544
0.949528
0.956940
0.963776
0.970031
0.975702
0.980785
0.985278
0.989177
0.992480
0.995185
0.997290
0.998795
0.999699
1.000000
0.974797
0.974797
0.974059
0.972675
0.970677
0.968079
0.964888
0.961110
0.956749
0.951807
0.946290
0.940201
0.933543
0.926322
0.918541
0.910206
0.901322
0.891894
0.881929
0.871431
0.860408
0.848866
0.836813
0.824254
0.811199
0.797655
0.783631
0.769133
0.754173
0.738758
0.722897
0.706601
0.689879
0.672741
0.655198
0.637260
0.618938
0.600243
0.581187
0.561780
0.542034
0.521962
0.501576
0.480887
0.459908
0.438653
0.417132
0.395361
0.373351
0.351117
0.328671
0.306026
0.283198
0.260198
0.237042
0.213743
0.190315
0.166773
0.143130
0.119401
0.095599
0.071740
0.047838
0.023907
-0.000038
-0.023984
-0.047915
-0.071817
-0.095676
-0.119478
-0.143208
-0.166851
-0.190394
-0.213822
-0.237122
-0.260278
-0.283278
-0.306108
-0.328753
-0.351200
-0.373435
-0.395446
-0.417218
-0.438739
-0.459996
-0.480976
-0.501666
-0.522054
-0.542127
-0.561874
-0.581283
-0.600341
-0.619038
-0.637362
-0.655302
-0.672848
-0.689988
-0.706712
-0.723011
-0.738875
-0.754293
-0.769257
-0.783757
-0.797786
-0.811334
-0.824393
-0.836956
-0.849015
-0.860562
-0.871591
-0.882095
-0.892067
-0.901502
-0.910395
-0.918738
-0.926529
-0.933761
-0.940431
-0.946535
-0.952068
-0.957028
-0.961411
-0.965216
-0.968438
-0.971078
-0.973133
-0.974601
-0.975483
-0.975777
-0.975483
-0.974601
-0.973133
-0.971078
-0.968438
-0.965216
-0.961411
-0.957028
-0.952068
-0.946535
-0.940431
-0.933761
-0.926529
-0.918738
-0.910395
-0.901502
-0.892067
-0.882095
-0.871591
-0.860562
-0.849015
-0.836956
-0.824393
-0.811334
-0.797786
-0.783757
-0.769257
-0.754293
-0.738875
-0.723011
-0.706712
-0.689988
-0.672848
-0.655302
-0.637362
-0.619038
-0.600341
-0.581283
-0.561874
-0.542127
-0.522054
-0.501666
-0.480976
-0.459996
-0.438739
-0.417218
-0.395446
-0.373435
-0.351200
-0.328753
-0.306108
-0.283278
-0.260278
-0.237122
-0.213822
-0.190394
-0.166851
-0.143208
-0.119478
-0.095676
-0.071817
-0.047915
-0.023984
-0.000038
0.023907
0.047838
0.071740
0.095599
0.119401
0.143130
0.166773
0.190315
0.213743
0.237042
0.260198
0.283198
0.306026
0.328671
0.351117
0.373351
0.395361
0.417132
0.438653
0.459908
0.480887
0.501576
0.521962
0.542034
0.561780
0.581187
0.600243
0.618938
0.637260
0.655198
0.672741
0.689879
0.706601
0.722897
0.738758
0.754173
0.769133
0.783631
0.797655
0.811199
0.824254
0.836813
0.848866
0.860408
0.871431
0.881929
0.891894
0.901322
0.910206
0.918541
0.926322
0.933543
0.940201
0.946290
0.951807
0.956749
0.961110
0.964888
0.968079
0.970677
0.972675
0.974059
0.974797
0.974797
0.950632
0.950632
0.949969
0.948673
0.946769
0.944271
0.941188
0.937527
0.933292
0.928489
0.923121
0.917193
0.910710
0.903675
0.896093
0.887969
0.879309
0.870117
0.860400
0.850163
0.839414
0.828157
0.816401
0.804152
0.791418
0.778207
0.764526
0.750384
0.735790
0.720752
0.705279
0.689381
0.673067
0.656347
0.639232
0.621732
0.603856
0.585617
0.567024
0.548090
0.528825
0.509241
0.489351
0.469165
0.448697
0.427958
0.406961
0.385719
0.364244
0.342550
0.320649
0.298555
0.276281
0.253841
0.231247
0.208514
0.185655
0.162684
0.139616
0.116462
0.093239
0.069959
0.046638
0.023287
-0.000077
-0.023441
-0.046791
-0.070113
-0.093393
-0.116617
-0.139771
-0.162840
-0.185812
-0.208672
-0.231406
-0.254000
-0.276442
-0.298718
-0.320813
-0.342716
-0.364411
-0.385888
-0.407132
-0.428131
-0.448872
-0.469343
-0.489531
-0.509424
-0.529011
-0.548279
-0.567217
-0.585813
-0.604056
-0.621935
-0.639440
-0.656560
-0.673284
-0.689603
-0.705507
-0.720985
-0.736030
-0.750631
-0.764779
-0.778468
-0.791687
-0.804430
-0.816688
-0.828454
-0.839721
-0.850482
-0.860731
-0.870462
-0.879668
-0.888345
-0.896486
-0.904088
-0.911145
-0.917653
-0.923608
-0.929007
-0.933847
-0.938124
-0.941836
-0.944981
-0.947556
-0.949561
-0.950994
-0.951854
-0.952141
-0.951854
-0.950994
-0.949561
-0.947556
-0.944981
-0.941836
-0.938124
-0.933847
-0.929007
-0.923608
-0.917653
-0.911145
-0.904088
-0.896486
-0.888345
-0.879668
-0.870462
-0.860731
-0.850482
-0.839721
-0.828454
-0.816688
-0.804430
-0.791687
-0.778468
-0.764779
-0.750631
-0.736030
-0.720985
-0.705507
-0.689603
-0.673284
-0.656560
-0.639440
-0.621935
-0.604056
-0.585813
-0.567217
-0.548279
-0.529011
-0.509424
-0.489531
-0.469343
-0.448872
-0.428131
-0.407132
-0.385888
-0.364411
-0.342716
-0.320813
-0.298718
-0.276442
-0.254000
-0.231406
-0.208672
-0.185812
-0.162840
-0.139771
-0.116617
-0.093393
-0.070113
-0.046791
-0.023441
-0.000077
0.023287
0.046638
0.069959
0.093239
0.116462
0.139616
0.162684
0.185655
0.208514
0.231247
0.253841
0.276281
0.298555
0.320649
0.342550
0.364244
0.385719
0.406961
0.427958
0.448697
0.469165
0.489351
0.509241
0.528825
0.548090
0.567024
0.585617
0.603856
0.621732
0.639232
0.656347
0.673067
0.689381
0.705279
0.720752
0.735790
0.750384
0.764526
0.778207
0.791418
0.804152
0.816401
0.828157
0.839414
0.850163
0.860400
0.870117
0.879309
0.887969
0.896093
0.903675
0.910710
0.917193
0.923121
0.928489
0.933292
0.937527
0.941188
0.944271
0.946769
0.948673
0.949969
0.950632
0.950632
0.927132
0.927132
0.926510
0.925280
0.923456
0.921048
0.918066
0.914516
0.910404
0.905734
0.900512
0.894742
0.888428
0.881574
0.874186
0.866269
0.857826
0.848865
0.839391
0.829409
0.818926
0.807948
0.796482
0.784535
0.772114
0.759228
0.745882
0.732087
0.717850
0.703180
0.688086
0.672576
0.656661
0.640349
0.623652
0.606578
0.589138
0.571343
0.553203
0.534730
0.515934
0.496827
0.477421
0.457727
0.437756
0.417522
0.397035
0.376310
0.355357
0.334190
0.312822
0.291264
0.269532
0.247636
0.225591
0.203411
0.181107
0.158694
0.136185
0.113595
0.090935
0.068221
0.045465
0.022682
-0.000115
-0.022912
-0.045696
-0.068452
-0.091166
-0.113827
-0.136418
-0.158928
-0.181342
-0.203647
-0.225829
-0.247876
-0.269773
-0.291508
-0.313067
-0.334438
-0.355607
-0.376563
-0.397291
-0.417781
-0.438019
-0.457993
-0.477691
-0.497102
-0.516213
-0.535014
-0.553492
-0.571637
-0.589438
-0.606883
-0.623964
-0.640668
-0.656987
-0.672910
-0.688427
-0.703530
-0.718210
-0.732456
-0.746262
-0.759618
-0.772517
-0.784950
-0.796911
-0.808392
-0.819385
-0.829886
-0.839886
-0.849381
-0.858364
-0.866830
-0.874774
-0.882191
-0.889077
-0.895427
-0.901238
-0.906506
-0.911228
-0.915402
-0.919024
-0.922092
-0.924605
-0.926561
-0.927960
-0.928799
-0.929079
-0.928799
-0.927960
-0.926561
-0.924605
-0.922092
-0.919024
-0.915402
-0.911228
-0.906506
-0.901238
-0.895427
-0.889077
-0.882191
-0.874774
-0.866830
-0.858364
-0.849381
-0.839886
-0.829886
-0.819385
-0.808392
-0.796911
-0.784950
-0.772517
-0.759618
-0.746262
-0.732456
-0.718210
-0.703530
-0.688427
-0.672910
-0.656987
-0.640668
-0.623964
-0.606883
-0.589438
-0.571637
-0.553492
-0.535014
-0.516213
-0.497102
-0.477691
-0.457993
-0.438019
-0.417781
-0.397291
-0.376563
-0.355607
-0.334438
-0.313067
-0.291508
-0.269773
-0.247876
-0.225829
-0.203647
-0.181342
-0.158928
-0.136418
-0.113827
-0.091166
-0.068452
-0.045696
-0.022912
-0.000115
0.022682
0.045465
0.068221
0.090935
0.113595
0.136185
0.158694
0.181107
0.203411
0.225591
0.247636
0.269532
0.291264
0.312822
0.334190
0.355357
0.376310
0.397035
0.417522
0.437756
0.457727
0.477421
0.496827
0.515934
0.534730
0.553203
0.571343
0.589138
0.606578
0.623652
0.640349
0.656661
0.672576
0.688086
0.703180
0.717850
0.732087
0.745882
0.759228
0.772114
0.784535
0.796482
0.807948
0.818926
0.829409
0.839391
0.848865
0.857826
0.866269
0.874186
0.881574
0.888428
0.894742
0.900512
0.905734
0.910404
0.914516
0.918066
0.921048
0.923456
0.925280
0.926510
0.927132
0.927132
0.904253
0.904253
0.903660
0.902482
0.900725
0.898400
0.895512
0.892068
0.888073
0.883533
0.878452
0.872834
0.866685
0.860008
0.852809
0.845092
0.836863
0.828127
0.818889
0.809156
0.798933
0.788227
0.777044
0.765391
0.753277
0.740707
0.727689
0.714232
0.700344
0.686033
0.671308
0.656177
0.640651
0.624738
0.608447
0.591790
0.574775
0.557414
0.539716
0.521693
0.503355
0.484713
0.465779
0.446564
0.427079
0.407337
0.387349
0.367127
0.346684
0.326031
0.305182
0.284149
0.262944
0.241581
0.220072
0.198430
0.176668
0.154800
0.132838
0.110795
0.088686
0.066523
0.044320
0.022090
-0.000153
-0.022397
-0.044627
-0.066831
-0.088994
-0.111104
-0.133148
-0.155111
-0.176981
-0.198745
-0.220389
-0.241900
-0.263266
-0.284473
-0.305509
-0.326362
-0.347017
-0.367464
-0.387690
-0.407682
-0.427429
-0.446919
-0.466139
-0.485079
-0.503726
-0.522071
-0.540101
-0.557805
-0.575174
-0.592197
-0.608863
-0.625162
-0.641084
-0.656621
-0.671762
-0.686499
-0.700822
-0.714723
-0.728194
-0.741226
-0.753812
-0.765944
-0.777614
-0.788817
-0.799544
-0.809789
-0.819547
-0.828811
-0.837577
-0.845837
-0.853589
-0.860826
-0.867545
-0.873741
-0.879411
-0.884551
-0.889159
-0.893231
-0.896765
-0.899759
-0.902211
-0.904120
-0.905484
-0.906303
-0.906576
-0.906303
-0.905484
-0.904120
-0.902211
-0.899759
-0.896765
-0.893231
-0.889159
-0.884551
-0.879411
-0.873741
-0.867545
-0.860826
-0.853589
-0.845837
-0.837577
-0.828811
-0.819547
-0.809789
-0.799544
-0.788817
-0.777614
-0.765944
-0.753812
-0.741226
-0.728194
-0.714723
-0.700822
-0.686499
-0.671762
-0.656621
-0.641084
-0.625162
-0.608863
-0.592197
-0.575174
-0.557805
-0.540101
-0.522071
-0.503726
-0.485079
-0.466139
-0.446919
-0.427429
-0.407682
-0.387690
-0.367464
-0.347017
-0.326362
-0.305509
-0.284473
-0.263266
-0.241900
-0.220389
-0.198745
-0.176981
-0.155111
-0.133148
-0.111104
-0.088994
-0.066831
-0.044627
-0.022397
-0.000153
0.022090
0.044320
0.066523
0.088686
0.110795
0.132838
0.154800
0.176668
0.198430
0.220072
0.241581
0.262944
0.284149
0.305182
0.326031
0.346684
0.367127
0.387349
0.407337
0.427079
0.446564
0.465779
0.484713
0.503355
0.521693
0.539716
0.557414
0.574775
0.591790
0.608447
0.624738
0.640651
0.656177
0.671308
0.686033
0.700344
0.714232
0.727689
0.740707
0.753277
0.765391
0.777044
0.788227
0.798933
0.809156
0.818889
0.828127
0.836863
0.845092
0.852809
0.860008
0.866685
0.872834
0.878452
0.883533
0.888073
0.892068
0.895512
0.898400
0.900725
0.902482
0.903660
0.904253
0.904253
0.881966
0.881966
0.881396
0.880261
0.878564
0.876313
0.873513
0.870170
0.866288
0.861872
0.856928
0.851458
0.845469
0.838965
0.831950
0.824429
0.816407
0.807890
0.798883
0.789392
0.779423
0.768982
0.758076
0.746711
0.734894
0.722633
0.709935
0.696808
0.683261
0.669300
0.654935
0.640175
0.625027
0.609503
0.593610
0.577359
0.560760
0.543821
0.526555
0.508971
0.491079
0.472891
0.454418
0.435671
0.416660
0.397398
0.377896
0.358166
0.338220
0.318070
0.297727
0.277205
0.256516
0.235672
0.214685
0.193569
0.172336
0.150998
0.129570
0.108063
0.086491
0.064866
0.043202
0.021512
-0.000191
-0.021895
-0.043586
-0.065250
-0.086876
-0.108449
-0.129957
-0.151387
-0.172727
-0.193962
-0.215081
-0.236070
-0.256917
-0.277610
-0.298136
-0.318482
-0.338636
-0.358587
-0.378322
-0.397829
-0.417097
-0.436113
-0.454867
-0.473348
-0.491543
-0.509442
-0.527035
-0.544310
-0.561257
-0.577867
-0.594128
-0.610032
-0.625568
-0.640728
-0.655502
-0.669881
-0.683857
-0.697421
-0.710565
-0.723281
-0.735561
-0.747399
-0.758786
-0.769717
-0.780183
-0.790180
-0.799702
-0.808741
-0.817294
-0.825354
-0.832917
-0.839979
-0.846535
-0.852581
-0.858113
-0.863129
-0.867625
-0.871598
-0.875046
-0.877968
-0.880360
-0.882223
-0.883554
-0.884353
-0.884619
-0.884353
-0.883554
-0.882223
-0.880360
-0.877968
-0.875046
-0.871598
-0.867625
-0.863129
-0.858113
-0.852581
-0.846535
-0.839979
-0.832917
-0.825354
-0.817294
-0.808741
-0.799702
-0.790181
-0.780183
-0.769717
-0.758786
-0.747399
-0.735561
-0.723281
-0.710565
-0.697421
-0.683857
-0.669881
-0.655502
-0.640728
-0.625568
-0.610032
-0.594128
-0.577867
-0.561257
-0.544310
-0.527035
-0.509442
-0.491543
-0.473348
-0.454867
-0.436113
-0.417097
-0.397829
-0.378322
-0.358587
-0.338636
-0.318482
-0.298136
-0.277610
-0.256917
-0.236070
-0.215081
-0.193962
-0.172727
-0.151387
-0.129957
-0.108449
-0.086876
-0.065250
-0.043586
-0.021895
-0.000191
0.021512
0.043202
0.064866
0.086491
0.108063
0.129570
0.150998
0.172336
0.193569
0.214685
0.235672
0.256516
0.277205
0.297727
0.318070
0.338220
0.358166
0.377896
0.397398
0.416660
0.435671
0.454418
0.472891
0.491079
0.508971
0.526555
0.543821
0.560760
0.577359
0.593610
0.609503
0.625027
0.640175
0.654935
0.669300
0.683261
0.696808
0.709935
0.722633
0.734894
0.746711
0.758076
0.768982
0.779423
0.789392
0.798883
0.807890
0.816407
0.824429
0.831950
0.838965
0.845469
0.851458
0.856928
0.861872
0.866288
0.870170
0.873513
0.876313
0.878564
0.880261
0.881396
0.881966
0.881966
0.860249
0.860249
0.859699
0.858601
0.856958
0.854776
0.852058
0.848810
0.845036
0.840741
0.835928
0.830603
0.824769
0.818432
0.811596
0.804266
0.796446
0.788143
0.779361
0.770106
0.760385
0.750203
0.739566
0.728481
0.716956
0.704996
0.692610
0.679806
0.666590
0.652971
0.638958
0.624558
0.609781
0.594636
0.579131
0.563277
0.547082
0.530557
0.513711
0.496556
0.479100
0.461355
0.443331
0.425040
0.406492
0.387699
0.368671
0.349421
0.329960
0.310300
0.290452
0.270429
0.250242
0.229905
0.209428
0.188825
0.168108
0.147289
0.126381
0.105396
0.084348
0.063248
0.042111
0.020947
-0.000229
-0.021406
-0.042570
-0.063709
-0.084809
-0.105859
-0.126845
-0.147755
-0.168576
-0.189296
-0.209902
-0.230382
-0.250723
-0.270914
-0.290941
-0.310794
-0.330459
-0.349926
-0.369182
-0.388216
-0.407016
-0.425571
-0.443870
-0.461902
-0.479655
-0.497120
-0.514286
-0.531142
-0.547678
-0.563885
-0.579752
-0.595269
-0.610429
-0.625221
-0.639636
-0.653667
-0.667303
-0.680538
-0.693363
-0.705771
-0.717753
-0.729304
-0.740415
-0.751080
-0.761293
-0.771048
-0.780338
-0.789158
-0.797503
-0.805368
-0.812748
-0.819638
-0.826035
-0.831934
-0.837332
-0.842226
-0.846613
-0.850490
-0.853855
-0.856705
-0.859040
-0.860857
-0.862156
-0.862936
-0.863195
-0.862936
-0.862156
-0.860857
-0.859040
-0.856705
-0.853855
-0.850490
-0.846613
-0.842226
-0.837332
-0.831934
-0.826035
-0.819638
-0.812748
-0.805368
-0.797503
-0.789158
-0.780338
-0.771048
-0.761293
-0.751080
-0.740415
-0.729304
-0.717753
-0.705771
-0.693363
-0.680538
-0.667303
-0.653667
-0.639636
-0.625221
-0.610429
-0.595269
-0.579752
-0.563885
-0.547678
-0.531142
-0.514286
-0.497120
-0.479655
-0.461902
-0.443870
-0.425571
-0.407016
-0.388216
-0.369182
-0.349926
-0.330459
-0.310794
-0.290941
-0.270914
-0.250723
-0.230382
-0.209902
-0.189296
-0.168576
-0.147755
-0.126845
-0.105859
-0.084809
-0.063709
-0.042570
-0.021406
-0.000229
0.020947
0.042111
0.063248
0.084348
0.105396
0.126381
0.147289
0.168108
0.188825
0.209428
0.229905
0.250242
0.270429
0.290452
0.310300
0.329960
0.349421
0.368671
0.387699
0.406492
0.425040
0.443331
0.461355
0.479100
0.496556
0.513711
0.530557
0.547082
0.563277
0.579131
0.594636
0.609781
0.624558
0.638958
0.652971
0.666590
0.679806
0.692610
0.704996
0.716956
0.728481
0.739566
0.750203
0.760385
0.770106
0.779361
0.788143
0.796446
0.804266
0.811596
0.818432
0.824769
0.830603
0.835928
0.840741
0.845036
0.848810
0.852058
0.854776
0.856958
0.858601
0.859699
0.860249
0.860249
0.839082
0.839082
0.838549
0.837485
0.835892
0.833774
0.831134
0.827977
0.824306
0.820126
0.815441
0.810255
0.804573
0.798398
0.791736
0.784592
0.776969
0.768874
0.760312
0.751288
0.741808
0.731878
0.721504
0.710693
0.699451
0.687786
0.675705
0.663214
0.650322
0.637037
0.623367
0.609320
0.594904
0.580128
0.565002
0.549535
0.533735
0.517613
0.501178
0.484440
0.467410
0.450097
0.432512
0.414666
0.396570
0.378234
0.359669
0.340887
0.321900
0.302717
0.283352
0.263816
0.244120
0.224276
0.204297
0.184195
0.163981
0.143668
0.123268
0.102793
0.082256
0.061669
0.041045
0.020395
-0.000267
-0.020930
-0.041580
-0.062205
-0.082793
-0.103332
-0.123809
-0.144211
-0.164527
-0.184744
-0.204850
-0.224832
-0.244680
-0.264380
-0.283922
-0.303293
-0.322481
-0.341475
-0.360264
-0.378836
-0.397179
-0.415284
-0.433139
-0.450733
-0.468056
-0.485098
-0.501847
-0.518294
-0.534429
-0.550242
-0.565724
-0.580865
-0.595657
-0.610090
-0.624156
-0.637846