# vtk DataFile Version 3.0
Result Field
ASCII
DATASET STRUCTURED_GRID
DIMENSIONS 33 33 1
POINTS 1089 double
0.000000 0.000000 0.000000
0.000000 0.031250 0.000000
0.000000 0.062500 0.000000
0.000000 0.093750 0.000000
0.000000 0.125000 0.000000
0.000000 0.156250 0.000000
0.000000 0.187500 0.000000
0.000000 0.218750 0.000000
0.000000 0.250000 0.000000
0.000000 0.281250 0.000000
0.000000 0.312500 0.000000
0.000000 0.343750 0.000000
0.000000 0.375000 0.000000
0.000000 0.406250 0.000000
0.000000 0.437500 0.000000
0.000000 0.468750 0.000000
0.000000 0.500000 0.000000
0.000000 0.531250 0.000000
0.000000 0.562500 0.000000
0.000000 0.593750 0.000000
0.000000 0.625000 0.000000
0.000000 0.656250 0.000000
0.000000 0.687500 0.000000
0.000000 0.718750 0.000000
0.000000 0.750000 0.000000
0.000000 0.781250 0.000000
0.000000 0.812500 0.000000
0.000000 0.843750 0.000000
0.000000 0.875000 0.000000
0.000000 0.906250 0.000000
0.000000 0.937500 0.000000
0.000000 0.968750 0.000000
0.000000 1.000000 0.000000
0.031250 0.000000 0.000000
0.031250 0.031250 0.000000
0.031250 0.062500 0.000000
0.031250 0.093750 0.000000
0.031250 0.125000 0.000000
0.031250 0.156250 0.000000
0.031250 0.187500 0.000000
0.031250 0.218750 0.000000
0.031250 0.250000 0.000000
0.031250 0.281250 0.000000
0.031250 0.312500 0.000000
0.031250 0.343750 0.000000
0.031250 0.375000 0.000000
0.031250 0.406250 0.000000
0.031250 0.437500 0.000000
0.031250 0.468750 0.000000
0.031250 0.500000 0.000000
0.031250 0.531250 0.000000
0.031250 0.562500 0.000000
0.031250 0.593750 0.000000
0.031250 0.625000 0.000000
0.031250 0.656250 0.000000
0.031250 0.687500 0.000000
0.031250 0.718750 0.000000
0.031250 0.750000 0.000000
0.031250 0.781250 0.000000
0.031250 0.812500 0.000000
0.031250 0.843750 0.000000
0.031250 0.875000 0.000000
0.031250 0.906250 0.000000
0.031250 0.937500 0.000000
0.031250 0.968750 0.000000
0.031250 1.000000 0.000000
0.062500 0.000000 0.000000
0.062500 0.031250 0.000000
0.062500 0.062500 0.000000
0.062500 0.093750 0.000000
0.062500 0.125000 0.000000
0.062500 0.156250 0.000000
0.062500 0.187500 0.000000
0.062500 0.218750 0.000000
0.062500 0.250000 0.000000
0.062500 0.281250 0.000000
0.062500 0.312500 0.000000
0.062500 0.343750 0.000000
0.062500 0.375000 0.000000
0.062500 0.406250 0.000000
0.062500 0.437500 0.000000
0.062500 0.468750 0.000000
0.062500 0.500000 0.000000
0.062500 0.531250 0.000000
0.062500 0.562500 0.000000
0.062500 0.593750 0.000000
0.062500 0.625000 0.000000
0.062500 0.656250 0.000000
0.062500 0.687500 0.000000
0.062500 0.718750 0.000000
0.062500 0.750000 0.000000
0.062500 0.781250 0.000000
0.062500 0.812500 0.000000
0.062500 0.843750 0.000000
0.062500 0.875000 0.000000
0.062500 0.906250 0.000000
0.062500 0.937500 0.000000
0.062500 0.968750 0.000000
0.062500 1.000000 0.000000
0.093750 0.000000 0.000000
0.093750 0.031250 0.000000
0.093750 0.062500 0.000000
0.093750 0.093750 0.000000
0.093750 0.125000 0.000000
0.093750 0.156250 0.000000
0.093750 0.187500 0.000000
0.093750 0.218750 0.000000
0.093750 0.250000 0.000000
0.093750 0.281250 0.000000
0.093750 0.312500 0.000000
0.093750 0.343750 0.000000
0.093750 0.375000 0.000000
0.093750 0.406250 0.000000
0.093750 0.437500 0.000000
0.093750 0.468750 0.000000
0.093750 0.500000 0.000000
0.093750 0.531250 0.000000
0.093750 0.562500 0.000000
0.093750 0.593750 0.000000
0.093750 0.625000 0.000000
0.093750 0.656250 0.000000
0.093750 0.687500 0.000000
0.093750 0.718750 0.000000
0.093750 0.750000 0.000000
0.093750 0.781250 0.000000
0.093750 0.812500 0.000000
0.093750 0.843750 0.000000
0.093750 0.875000 0.000000
0.093750 0.906250 0.000000
0.093750 0.937500 0.000000
0.093750 0.968750 0.000000
0.093750 1.000000 0.000000
0.125000 0.000000 0.000000
0.125000 0.031250 0.000000
0.125000 0.062500 0.000000
0.125000 0.093750 0.000000
0.125000 0.125000 0.000000
0.125000 0.156250 0.000000
0.125000 0.187500 0.000000
0.125000 0.218750 0.000000
0.125000 0.250000 0.000000
0.125000 0.281250 0.000000
0.125000 0.312500 0.000000
0.125000 0.343750 0.000000
0.125000 0.375000 0.000000
0.125000 0.406250 0.000000
0.125000 0.437500 0.000000
0.125000 0.468750 0.000000
0.125000 0.500000 0.000000
0.125000 0.531250 0.000000
0.125000 0.562500 0.000000
0.125000 0.593750 0.000000
0.125000 0.625000 0.000000
0.125000 0.656250 0.000000
0.125000 0.687500 0.000000
0.125000 0.718750 0.000000
0.125000 0.750000 0.000000
0.125000 0.781250 0.000000
0.125000 0.812500 0.000000
0.125000 0.843750 0.000000
0.125000 0.875000 0.000000
0.125000 0.906250 0.000000
0.125000 0.937500 0.000000
0.125000 0.968750 0.000000
0.125000 1.000000 0.000000
0.156250 0.000000 0.000000
0.156250 0.031250 0.000000
0.156250 0.062500 0.000000
0.156250 0.093750 0.000000
0.156250 0.125000 0.000000
0.156250 0.156250 0.000000
0.156250 0.187500 0.000000
0.156250 0.218750 0.000000
0.156250 0.250000 0.000000
0.156250 0.281250 0.000000
0.156250 0.312500 0.000000
0.156250 0.343750 0.000000
0.156250 0.375000 0.000000
0.156250 0.406250 0.000000
0.156250 0.437500 0.000000
0.156250 0.468750 0.000000
0.156250 0.500000 0.000000
0.156250 0.531250 0.000000
0.156250 0.562500 0.000000
0.156250 0.593750 0.000000
0.156250 0.625000 0.000000
0.156250 0.656250 0.000000
0.156250 0.687500 0.000000
0.156250 0.718750 0.000000
0.156250 0.750000 0.000000
0.156250 0.781250 0.000000
0.156250 0.812500 0.000000
0.156250 0.843750 0.000000
0.156250 0.875000 0.000000
0.156250 0.906250 0.000000
0.156250 0.937500 0.000000
0.156250 0.968750 0.000000
0.156250 1.000000 0.000000
0.187500 0.000000 0.000000
0.187500 0.031250 0.000000
0.187500 0.062500 0.000000
0.187500 0.093750 0.000000
0.187500 0.125000 0.000000
0.187500 0.156250 0.000000
0.187500 0.187500 0.000000
0.187500 0.218750 0.000000
0.187500 0.250000 0.000000
0.187500 0.281250 0.000000
0.187500 0.312500 0.000000
0.187500 0.343750 0.000000
0.187500 0.375000 0.000000
0.187500 0.406250 0.000000
0.187500 0.437500 0.000000
0.187500 0.468750 0.000000
0.187500 0.500000 0.000000
0.187500 0.531250 0.000000
0.187500 0.562500 0.000000
0.187500 0.593750 0.000000
0.187500 0.625000 0.000000
0.187500 0.656250 0.000000
0.187500 0.687500 0.000000
0.187500 0.718750 0.000000
0.187500 0.750000 0.000000
0.187500 0.781250 0.000000
0.187500 0.812500 0.000000
0.187500 0.843750 0.000000
0.187500 0.875000 0.000000
0.187500 0.906250 0.000000
0.187500 0.937500 0.000000
0.187500 0.968750 0.000000
0.187500 1.000000 0.000000
0.218750 0.000000 0.000000
0.218750 0.031250 0.000000
0.218750 0.062500 0.000000
0.218750 0.093750 0.000000
0.218750 0.125000 0.000000
0.218750 0.156250 0.000000
0.218750 0.187500 0.000000
0.218750 0.218750 0.000000
0.218750 0.250000 0.000000
0.218750 0.281250 0.000000
0.218750 0.312500 0.000000
0.218750 0.343750 0.000000
0.218750 0.375000 0.000000
0.218750 0.406250 0.000000
0.218750 0.437500 0.000000
0.218750 0.468750 0.000000
0.218750 0.500000 0.000000
0.218750 0.531250 0.000000
0.218750 0.562500 0.000000
0.218750 0.593750 0.000000
0.218750 0.625000 0.000000
0.218750 0.656250 0.000000
0.218750 0.687500 0.000000
0.218750 0.718750 0.000000
0.218750 0.750000 0.000000
0.218750 0.781250 0.000000
0.218750 0.812500 0.000000
0.218750 0.843750 0.000000
0.218750 0.875000 0.000000
0.218750 0.906250 0.000000
0.218750 0.937500 0.000000
0.218750 0.968750 0.000000
0.218750 1.000000 0.000000
0.250000 0.000000 0.000000
0.250000 0.031250 0.000000
0.250000 0.062500 0.000000
0.250000 0.093750 0.000000
0.250000 0.125000 0.000000
0.250000 0.156250 0.000000
0.250000 0.187500 0.000000
0.250000 0.218750 0.000000
0.250000 0.250000 0.000000
0.250000 0.281250 0.000000
0.250000 0.312500 0.000000
0.250000 0.343750 0.000000
0.250000 0.375000 0.000000
0.250000 0.406250 0.000000
0.250000 0.437500 0.000000
0.250000 0.468750 0.000000
0.250000 0.500000 0.000000
0.250000 0.531250 0.000000
0.250000 0.562500 0.000000
0.250000 0.593750 0.000000
0.250000 0.625000 0.000000
0.250000 0.656250 0.000000
0.250000 0.687500 0.000000
0.250000 0.718750 0.000000
0.250000 0.750000 0.000000
0.250000 0.781250 0.000000
0.250000 0.812500 0.000000
0.250000 0.843750 0.000000
0.250000 0.875000 0.000000
0.250000 0.906250 0.000000
0.250000 0.937500 0.000000
0.250000 0.968750 0.000000
0.250000 1.000000 0.000000
0.281250 0.000000 0.000000
0.281250 0.031250 0.000000
0.281250 0.062500 0.000000
0.281250 0.093750 0.000000
0.281250 0.125000 0.000000
0.281250 0.156250 0.000000
0.281250 0.187500 0.000000
0.281250 0.218750 0.000000
0.281250 0.250000 0.000000
0.281250 0.281250 0.000000
0.281250 0.312500 0.000000
0.281250 0.343750 0.000000
0.281250 0.375000 0.000000
0.281250 0.406250 0.000000
0.281250 0.437500 0.000000
0.281250 0.468750 0.000000
0.281250 0.500000 0.000000
0.281250 0.531250 0.000000
0.281250 0.562500 0.000000
0.281250 0.593750 0.000000
0.281250 0.625000 0.000000
0.281250 0.656250 0.000000
0.281250 0.687500 0.000000
0.281250 0.718750 0.000000
0.281250 0.750000 0.000000
0.281250 0.781250 0.000000
0.281250 0.812500 0.000000
0.281250 0.843750 0.000000
0.281250 0.875000 0.000000
0.281250 0.906250 0.000000
0.281250 0.937500 0.000000
0.281250 0.968750 0.000000
0.281250 1.000000 0.000000
0.312500 0.000000 0.000000
0.312500 0.031250 0.000000
0.312500 0.062500 0.000000
0.312500 0.093750 0.000000
0.312500 0.125000 0.000000
0.312500 0.156250 0.000000
0.312500 0.187500 0.000000
0.312500 0.218750 0.000000
0.312500 0.250000 0.000000
0.312500 0.281250 0.000000
0.312500 0.312500 0.000000
0.312500 0.343750 0.000000
0.312500 0.375000 0.000000
0.312500 0.406250 0.000000
0.312500 0.437500 0.000000
0.312500 0.468750 0.000000
0.312500 0.500000 0.000000
0.312500 0.531250 0.000000
0.312500 0.562500 0.000000
0.312500 0.593750 0.000000
0.312500 0.625000 0.000000
0.312500 0.656250 0.000000
0.312500 0.687500 0.000000
[...]
POINT_DATA 1089
SCALARS potential double 1
LOOKUP_TABLE default
1.000000
0.980785
0.923880
0.831470
0.707107
0.555570
0.382683
0.195090
0.000000
-0.195090
-0.382683
-0.555570
-0.707107
-0.831470
-0.923880
-0.980785
-1.000000
-0.980785
-0.923880
-0.831470
-0.707107
-0.555570
-0.382683
-0.195090
-0.000000
0.195090
0.382683
0.555570
0.707107
0.831470
0.923880
0.980785
1.000000
0.787718
0.787718
0.747836
0.675413
0.575246
0.451989
0.310756
0.157169
-0.002756
-0.162801
-0.316769
-0.458713
-0.583154
-0.685295
-0.761200
-0.807945
-0.823729
-0.807945
-0.761200
-0.685295
-0.583154
-0.458713
-0.316769
-0.162801
-0.002756
0.157169
0.310756
0.451989
0.575246
0.675413
0.747836
0.787718
0.787718
0.634532
0.634532
0.604332
0.547103
0.466473
0.366386
0.251182
0.125585
-0.005391
-0.136588
-0.262881
-0.379358
-0.481502
-0.565357
-0.627681
-0.666066
-0.679027
-0.666066
-0.627681
-0.565357
-0.481502
-0.379358
-0.262881
-0.136588
-0.005391
0.125585
0.251182
0.366386
0.466473
0.547103
0.604332
0.634532
0.634532
0.511547
0.511547
0.487856
0.442193
0.377158
0.295900
0.202000
0.099379
-0.007804
-0.115278
-0.218808
-0.314336
-0.398137
-0.466950
-0.518102
-0.549609
-0.560248
-0.549609
-0.518102
-0.466950
-0.398137
-0.314336
-0.218808
-0.115278
-0.007804
0.099379
0.202000
0.295900
0.377158
0.442193
0.487856
0.511547
0.511547
0.412252
0.412252
0.393353
0.356656
0.304064
0.238057
0.161539
0.077735
-0.009925
-0.097914
-0.182736
-0.261042
-0.329761
-0.386204
-0.428169
-0.454019
-0.462749
-0.454019
-0.428169
-0.386204
-0.329761
-0.261042
-0.182736
-0.097914
-0.009925
0.077735
0.161539
0.238057
0.304064
0.356656
0.393353
0.412252
0.412252
0.331856
0.331856
0.316648
0.287013
0.244388
0.190723
0.128365
0.059946
-0.011716
-0.083718
-0.153178
-0.217336
-0.273661
-0.319937
-0.354349
-0.375549
-0.382709
-0.375549
-0.354349
-0.319937
-0.273661
-0.217336
-0.153178
-0.083718
-0.011716
0.059946
0.128365
0.190723
0.244388
0.287013
0.316648
0.331856
0.331856
0.266669
0.266669
0.254371
0.230360
0.195749
0.152083
0.101252
0.045399
-0.013168
-0.072065
-0.128921
-0.181464
-0.227610
-0.265534
-0.293740
-0.311120
-0.316990
-0.311120
-0.293740
-0.265534
-0.227610
-0.181464
-0.128921
-0.072065
-0.013168
0.045399
0.101252
0.152083
0.195749
0.230360
0.254371
0.266669
0.266669
0.213780
0.213780
0.203805
0.184309
0.156166
0.120609
0.079162
0.033567
-0.014289
-0.062453
-0.108975
-0.151990
-0.189782
-0.220848
-0.243959
-0.258200
-0.263011
-0.258200
-0.243959
-0.220848
-0.189782
-0.151990
-0.108975
-0.062453
-0.014289
0.033567
0.079162
0.120609
0.156166
0.184309
0.203805
0.213780
0.213780
0.170866
0.170866
0.162759
0.146905
0.123997
0.095024
0.061218
0.023996
-0.015104
-0.054481
-0.092537
-0.127740
-0.158678
-0.184118
-0.203046
-0.214712
-0.218653
-0.214712
-0.203046
-0.184118
-0.158678
-0.127740
-0.092537
-0.054481
-0.015104
0.023996
0.061218
0.095024
0.123997
0.146905
0.162759
0.170866
0.170866
0.136058
0.136058
0.129461
0.116554
0.097892
0.074273
0.046692
0.016302
-0.015642
-0.047830
-0.078953
-0.107754
-0.133074
-0.153899
-0.169396
-0.178949
-0.182175
-0.178949
-0.169396
-0.153899
-0.133074
-0.107754
-0.078953
-0.047830
-0.015642
0.016302
0.046692
0.074273
0.097892
0.116554
0.129461
0.136058
0.136058
0.107847
0.107847
0.102474
0.091958
0.076746
0.057482
0.034975
0.010161
-0.015935
-0.042243
-0.067691
-0.091249
-0.111965
-0.129007
-0.141691
-0.149511
-0.152152
-0.149511
-0.141691
-0.129007
-0.111965
-0.091249
-0.067691
-0.042243
-0.015935
0.010161
0.034975
0.057482
0.076746
0.091958
0.102474
0.107847
0.107847
0.085009
0.085009
0.080630
0.072057
0.059651
0.043935
0.025565
0.005302
-0.016016
-0.037516
-0.058320
-0.077585
-0.094530
-0.108473
-0.118852
-0.125250
-0.127412
-0.125250
-0.118852
-0.108473
-0.094530
-0.077585
-0.058320
-0.037516
-0.016016
0.005302
0.025565
0.043935
0.059651
0.072057
0.080630
0.085009
0.085009
0.066551
0.066551
0.062980
0.055988
0.045867
0.033042
0.018046
0.001500
-0.015915
-0.033484
-0.050490
-0.066241
-0.080098
-0.091502
-0.099992
-0.105227
-0.106996
-0.105227
-0.099992
-0.091502
-0.080098
-0.066241
-0.050490
-0.033484
-0.015915
0.001500
0.018046
0.033042
0.045867
0.055988
0.062980
0.066551
0.066551
0.051664
0.051664
0.048751
0.043046
0.034788
0.024321
0.012078
-0.001434
-0.015660
-0.030015
-0.043914
-0.056789
-0.068120
-0.077445
-0.084389
-0.088670
-0.090117
-0.088670
-0.084389
-0.077445
-0.068120
-0.056789
-0.043914
-0.030015
-0.015660
-0.001434
0.012078
0.024321
0.034788
0.043046
0.048751
0.051664
0.051664
0.039690
0.039690
0.037313
0.032658
0.025919
0.017374
0.007379
-0.003656
-0.015275
-0.027003
-0.038361
-0.048884
-0.058146
-0.065770
-0.071447
-0.074948
-0.076131
-0.074948
-0.071447
-0.065770
-0.058146
-0.048884
-0.038361
-0.027003
-0.015275
-0.003656
0.007379
0.017374
0.025919
0.032658
0.037313
0.039690
0.039690
0.030093
0.030093
0.028154
0.024355
0.018854
0.011880
0.003719
-0.005292
-0.014782
-0.024362
-0.033641
-0.042241
-0.049810
-0.056041
-0.060682
-0.063543
-0.064510
-0.063543
-0.060682
-0.056041
-0.049810
-0.042241
-0.033641
-0.024362
-0.014782
-0.005292
0.003719
0.011880
0.018854
0.024355
0.028154
0.030093
0.030093
0.022436
0.022436
0.020853
0.017753
0.013264
0.007571
0.000908
-0.006448
-0.014198
-0.022023
-0.029602
-0.036627
-0.042812
-0.047903
-0.051695
-0.054034
-0.054824
-0.054034
-0.051695
-0.047903
-0.042812
-0.036627
-0.029602
-0.022023
-0.014198
-0.006448
0.000908
0.007571
0.013264
0.017753
0.020853
0.022436
0.022436
0.016362
0.016362
0.015070
0.012540
0.008877
0.004231
-0.001207
-0.007212
-0.013539
-0.019928
-0.026118
-0.031855
-0.036906
-0.041065
-0.044163
-0.046073
-0.046719
-0.046073
-0.044163
-0.041065
-0.036906
-0.031855
-0.026118
-0.019928
-0.013539
-0.007212
-0.001207
0.004231
0.008877
0.012540
0.015070
0.016362
0.016362
0.011579
0.011579
0.010525
0.008462
0.005473
0.001682
-0.002755
-0.007655
-0.012818
-0.018033
-0.023085
-0.027769
-0.031892
-0.035288
-0.037817
-0.039377
-0.039904
-0.039377
-0.037817
-0.035288
-0.031892
-0.027769
-0.023085
-0.018033
-0.012818
-0.007655
-0.002755
0.001682
0.005473
0.008462
0.010525
0.011579
0.011579
0.007849
0.007849
0.006990
0.005308
0.002871
-0.000220
-0.003839
-0.007835
-0.012047
-0.016300
-0.020421
-0.024242
-0.027607
-0.030377
-0.032441
-0.033714
-0.034144
-0.033714
-0.032441
-0.030377
-0.027607
-0.024242
-0.020421
-0.016300
-0.012047
-0.007835
-0.003839
-0.000220
0.002871
0.005308
0.006990
0.007849
0.007849
0.004979
0.004979
0.004279
0.002908
0.000923
-0.001596
-0.004544
-0.007801
-0.011233
-0.014699
-0.018058
-0.021172
-0.023915
-0.026173
-0.027855
-0.028893
-0.029244
-0.028893
-0.027855
-0.026173
-0.023915
-0.021172
-0.018058
-0.014699
-0.011233
-0.007801
-0.004544
-0.001596
0.000923
0.002908
0.004279
0.004979
0.004979
0.002808
0.002808
0.002239
0.001123
-0.000492
-0.002542
-0.004941
-0.007591
-0.010384
-0.013206
-0.015940
-0.018475
-0.020707
-0.022545
-0.023915
-0.024760
-0.025045
-0.024760
-0.023915
-0.022545
-0.020707
-0.018475
-0.015940
-0.013206
-0.010384
-0.007591
-0.004941
-0.002542
-0.000492
0.001123
0.002239
0.002808
0.002808
0.001207
0.001207
0.000744
-0.000161
-0.001473
-0.003138
-0.005086
-0.007239
-0.009508
-0.011799
-0.014020
-0.016079
-0.017893
-0.019386
-0.020499
-0.021185
-0.021417
-0.021185
-0.020499
-0.019386
-0.017893
-0.016079
-0.014020
-0.011799
-0.009508
-0.007239
-0.005086
-0.003138
-0.001473
-0.000161
0.000744
0.001207
0.001207
0.000068
0.000068
-0.000306
-0.001040
-0.002102
-0.003450
-0.005028
-0.006771
-0.008608
-0.010464
-0.012262
-0.013930
-0.015399
-0.016608
-0.017510
-0.018066
-0.018253
-0.018066
-0.017510
-0.016608
-0.015399
-0.013930
-0.012262
-0.010464
-0.008608
-0.006771
-0.005028
-0.003450
-0.002102
-0.001040
-0.000306
0.000068
0.000068
-0.000696
-0.000696
-0.000998
-0.001589
-0.002446
-0.003532
-0.004804
-0.006209
-0.007689
-0.009185
-0.010635
-0.011980
-0.013164
-0.014139
-0.014866
-0.015314
-0.015465
-0.015314
-0.014866
-0.014139
-0.013164
-0.011980
-0.010635
-0.009185
-0.007689
-0.006209
-0.004804
-0.003532
-0.002446
-0.001589
-0.000998
-0.000696
-0.000696
-0.001159
-0.001159
-0.001401
-0.001874
-0.002559
-0.003428
-0.004446
-0.005571
-0.006756
-0.007953
-0.009114
-0.010190
-0.011138
-0.011918
-0.012500
-0.012859
-0.012980
-0.012859
-0.012500
-0.011918
-0.011138
-0.010190
-0.009114
-0.007953
-0.006756
-0.005571
-0.004446
-0.003428
-0.002559
-0.001874
-0.001401
-0.001159
-0.001159
-0.001381
-0.001381
-0.001572
-0.001946
-0.002488
-0.003177
-0.003982
-0.004872
-0.005810
-0.006758
-0.007677
-0.008529
-0.009279
-0.009897
-0.010357
-0.010641
-0.010737
-0.010641
-0.010357
-0.009897
-0.009279
-0.008529
-0.007677
-0.006758
-0.005810
-0.004872
-0.003982
-0.003177
-0.002488
-0.001946
-0.001572
-0.001381
-0.001381
-0.001411
-0.001411
-0.001559
-0.001850
-0.002272
-0.002807
-0.003434
-0.004126
-0.004855
-0.005592
-0.006306
-0.006969
-0.007552
-0.008033
-0.008391
-0.008611
-0.008686
-0.008611
-0.008391
-0.008033
-0.007552
-0.006969
-0.006306
-0.005592
-0.004855
-0.004126
-0.003434
-0.002807
-0.002272
-0.001850
-0.001559
-0.001411
-0.001411
-0.001292
-0.001292
-0.001404
-0.001624
-0.001943
-0.002346
-0.002819
-0.003342
-0.003892
-0.004449
-0.004988
-0.005488
-0.005928
-0.006291
-0.006561
-0.006728
-0.006784
-0.006728
-0.006561
-0.006291
-0.005928
-0.005488
-0.004988
-0.004449
-0.003892
-0.003342
-0.002819
-0.002346
-0.001943
-0.001624
-0.001404
-0.001292
-0.001292
-0.001062
-0.001062
-0.001142
-0.001299
-0.001527
-0.001817
-0.002155
-0.002530
-0.002924
-0.003322
-0.003709
-0.004067
-0.004382
-0.004642
-0.004836
-0.004955
-0.004995
-0.004955
-0.004836
-0.004642
-0.004382
-0.004067
-0.003709
-0.003322
-0.002924
-0.002530
-0.002155
-0.001817
-0.001527
-0.001299
-0.001142
-0.001062
-0.001062
-0.000751
-0.000751
-0.000803
-0.000904
-0.001051
-0.001238
-0.001456
-0.001697
-0.001951
-0.002208
-0.002457
-0.002688
-0.002892
-0.003059
-0.003184
-0.003261
-0.003287
-0.003261
-0.003184
-0.003059
-0.002892
-0.002688
-0.002457
-0.002208
-0.001951
-0.001697
-0.001456
-0.001238
-0.001051
-0.000904
-0.000803
-0.000751
-0.000751
-0.000388
-0.000388
-0.000413
-0.000463
-0.000535
-0.000627
-0.000734
-0.000852
-0.000976
-0.001102
-0.001224
-0.001337
-0.001437
-0.001519
-0.001580
-0.001618
-0.001631
-0.001618
-0.001580
-0.001519
-0.001437
-0.001337
-0.001224
-0.001102
-0.000976
-0.000852
-0.000734
-0.000627
-0.000535
-0.000463
-0.000413
-0.000388
-0.000388
0.000000
0.000000
0.000000
0.000000
0.000000
0.000000
0.000000
0.000000
0.000000
0.000000
0.000000
0.000000
0.000000
0.000000
0.000000
0.000000
0.000000
0.000000
0.000000
0.000000
0.000000
0.000000
0.000000
0.000000
0.000000
0.000000
0.000000
0.000000
0.000000
0.000000
0.000000
0.000000
0.000000
